Program Version,EnergyPlus, Version 25.1.0-68a4a7c774, YMD=2025.12.14 08:31
1,5,Environment Title[],Latitude[deg],Longitude[deg],Time Zone[],Elevation[m]
2,8,Day of Simulation[],Month[],Day of Month[],DST Indicator[1=yes 0=no],Hour[],StartMinute[],EndMinute[],DayType
3,5,Cumulative Day of Simulation[],Month[],Day of Month[],DST Indicator[1=yes 0=no],DayType  ! When Daily Report Variables Requested
4,2,Cumulative Days of Simulation[],Month[]  ! When Monthly Report Variables Requested
5,1,Cumulative Days of Simulation[] ! When Run Period Report Variables Requested
6,1,Calendar Year of Simulation[] ! When Annual Report Variables Requested
8,1,SPACE 1 - 1 189.1-2009 - OFFICE - OPENOFFICE - CZ4-8 PEOPLE,People Air Temperature [C] !Hourly
10,1,SPACE 2 - 1 189.1-2009 - OFFICE - OPENOFFICE - CZ4-8 PEOPLE,People Air Temperature [C] !Hourly
