Program Version,EnergyPlus, Version 9.4.0-998c4b761e, YMD=2025.12.13 09:33
1,5,Environment Title[],Latitude[deg],Longitude[deg],Time Zone[],Elevation[m]
2,8,Day of Simulation[],Month[],Day of Month[],DST Indicator[1=yes 0=no],Hour[],StartMinute[],EndMinute[],DayType
3,5,Cumulative Day of Simulation[],Month[],Day of Month[],DST Indicator[1=yes 0=no],DayType  ! When Daily Report Variables Requested
4,2,Cumulative Days of Simulation[],Month[]  ! When Monthly Report Variables Requested
5,1,Cumulative Days of Simulation[] ! When Run Period Report Variables Requested
6,1,Calendar Year of Simulation[] ! When Annual Report Variables Requested
7,1,Environment,Site Outdoor Air Drybulb Temperature [C] !Hourly
8,1,Environment,Site Outdoor Air Dewpoint Temperature [C] !Hourly
9,1,Environment,Site Outdoor Air Barometric Pressure [Pa] !Hourly
10,1,Environment,Site Wind Speed [m/s] !Hourly
11,1,Environment,Site Wind Direction [deg] !Hourly
12,1,Environment,Site Diffuse Solar Radiation Rate per Area [W/m2] !Hourly
13,1,Environment,Site Direct Solar Radiation Rate per Area [W/m2] !Hourly
14,1,Environment,Site Solar Azimuth Angle [deg] !Hourly
15,1,Environment,Site Solar Altitude Angle [deg] !Hourly
199,1,PLANTAX08:OFFICE MI_OBJETO_PEOPLE,Zone Thermal Comfort Fanger Model PMV [] !Hourly,ON 24/7
200,1,PLANTAX08:OFFICE MI_OBJETO_PEOPLE,Zone Thermal Comfort Fanger Model PPD [%] !Hourly,ON 24/7
201,1,PLANTAX08:OFFICE MI_OBJETO_PEOPLE,Zone Thermal Comfort Mean Radiant Temperature [C] !Hourly,ON 24/7
202,1,PLANTAX08:OFFICE MI_OBJETO_PEOPLE,Zone Thermal Comfort Operative Temperature [C] !Hourly,ON 24/7
18,1,Electricity:Facility [J] !Hourly
54,1,InteriorLights:Electricity [J] !Hourly
481,1,Carbon Equivalent:Facility [kg] !Hourly
End of Data Dictionary
1,CICSE ALJARAFE CENTER (01-01:31-12),  37.42,  -5.90,   1.00,  31.00
2,1, 1, 1, 0, 1, 0.00,60.00,Tuesday
7,9.766666666666668
8,6.300000000000001
9,101883.33333333333
10,4.908333333333333
11,234.16666666666667
12,0.0
13,0.0
14,40.45179671013648
15,-71.61019127702916
199,-0.031564688666600598
200,5.021111047429254
201,23.380591946181327
202,23.03976014695213
18,966528.0154354514
54,0.0
481,0.0
2,1, 1, 1, 0, 2, 0.00,60.00,Tuesday
7,12.5
8,10.433333333333334
9,101683.33333333333
10,6.2
11,203.33333333333335
12,0.0
13,0.0
14,14.343239802376346
15,-75.11980363430247
199,0.008529547348010355
200,5.006906526488422
201,23.332229176231299
202,23.12258609047718
18,966528.0154354514
54,0.0
481,0.0
2,1, 1, 1, 0, 3, 0.00,60.00,Tuesday
7,14.433333333333332
8,12.766666666666666
9,101483.33333333333
10,6.2
11,225.83333333333335
12,0.0
13,0.0
14,49.43569423733292
15,-69.38001984457915
199,0.07153538660479515
200,5.113244277319095
201,23.34254147925201
202,23.245258858153219
18,966528.0154354514
54,0.0
481,0.0
2,1, 1, 1, 0, 4, 0.00,60.00,Tuesday
7,15.566666666666669
8,14.241666666666668
9,101341.66666666667
10,6.783333333333334
11,230.0
12,0.0
13,0.0
14,71.24737324626469
15,-59.02909302535108
199,0.13651196140425024
200,5.392253946736005
201,23.37887054733965
202,23.35959802697491
18,966528.0154354514
54,0.0
481,0.0
2,1, 1, 1, 0, 5, 0.00,60.00,Tuesday
7,16.075
8,14.933333333333332
9,101300.0
10,7.316666666666666
11,230.0
12,0.0
13,0.0
14,83.97198433228725
15,-47.42179193056226
199,0.19212811503208883
200,5.769490098750126
201,23.42046067276918
202,23.444569593455915
18,966528.0154354514
54,0.0
481,0.0
2,1, 1, 1, 0, 6, 0.00,60.00,Tuesday
7,16.316666666666668
8,15.333333333333334
9,101241.66666666667
10,7.458333333333333
11,230.0
12,0.0
13,0.0
14,93.4211667612243
15,-35.53761264184762
199,0.2367638828424989
200,6.166062222203958
201,23.460986687472205
202,23.506204687401593
18,966528.0154354514
54,0.0
481,0.0
2,1, 1, 1, 0, 7, 0.00,60.00,Tuesday
7,16.75
8,15.383333333333333
9,101141.66666666667
10,7.616666666666667
11,230.0
12,0.0
13,0.0
14,101.7089373153966
15,-23.749771199616047
199,0.27680507126147876
200,6.594105834204645
201,23.50490211979533
202,23.56914809849251
18,966528.0154354514
54,0.0
481,0.0
2,1, 1, 1, 0, 8, 0.00,60.00,Tuesday
7,17.0
8,15.125
9,101100.0
10,7.7
11,224.16666666666667
12,0.0
13,0.0
14,109.82687629211552
15,-12.303016744736082
199,0.3594448366544105
200,7.7073810064639789
201,23.764480635969503
202,23.837682564039438
18,13943697.920235448
54,12977169.904799996
481,0.0
2,1, 1, 1, 0, 9, 0.00,60.00,Tuesday
7,16.883333333333334
8,15.174999999999999
9,101100.0
10,7.233333333333333
11,220.0
12,3.722222222222222
13,0.0
14,118.41058918369055
15,-1.444760305802361
199,0.43581892044115985
200,8.968040068747401
201,24.006404665364387
202,24.100762592023796
18,14182909.27381632
54,12977169.904799996
481,0.0
2,1, 1, 1, 0,10, 0.00,60.00,Tuesday
7,16.683333333333338
8,15.475
9,101100.0
10,6.491666666666667
11,237.5
12,36.833333333333339
13,11.999999999999999
14,127.98633885775983
15,8.512743245586606
199,0.45750933649156597
200,9.368910475329939
201,24.17682299573833
202,24.151965536355818
18,14945811.509363983
54,12977169.904799996
481,0.0
2,1, 1, 1, 0,11, 0.00,60.00,Tuesday
7,16.775000000000003
8,14.608333333333335
9,101158.33333333333
10,6.2
11,250.0
12,116.5
13,93.16666666666667
14,139.02888353414375
15,17.1467201223118
199,0.46056565554826708
200,9.427972293196627
201,24.382859061540527
202,24.14453493040605
18,16084696.907676693
54,12977169.904799996
481,0.0
2,1, 1, 1, 0,12, 0.00,60.00,Tuesday
7,17.016666666666667
8,12.791666666666666
9,101200.0
10,6.2
11,250.0
12,175.25
13,261.75
14,151.87352010850248
15,23.90161013273001
199,0.4550921251139906
200,9.32252037872154
201,24.63062819490106
202,24.155392628006714
18,17213901.203122789
54,12977169.904799996
481,0.0
2,1, 1, 1, 0,13, 0.00,60.00,Tuesday
7,17.275000000000003
8,10.716666666666667
9,101258.33333333333
10,6.2
11,296.6666666666667
12,166.41666666666667
13,485.6666666666667
14,166.46948556378707
15,28.13981601784261
199,0.4526588460225291
200,9.276057358667261
201,24.863435697508817
202,24.223400455695097
18,18119612.936867797
54,12977169.904799996
481,0.0
2,1, 1, 1, 0,14, 0.00,60.00,Tuesday
7,17.516666666666667
8,9.158333333333334
9,101300.0
10,6.316666666666666
11,330.0
12,129.41666666666667
13,650.75
14,182.11757083589229
15,29.325563762497464
199,0.45205879395261136
200,9.264636631631876
201,25.14168711201565
202,24.330385858423964
18,19218914.135479504
54,12977169.904799996
481,0.0
2,1, 1, 1, 0,15, 0.00,60.00,Tuesday
7,17.71666666666667
8,8.0
9,101358.33333333333
10,6.575000000000002
11,318.3333333333333
12,93.25
13,726.4166666666666
14,197.59030539466623
15,27.284892955338525
199,0.4514936306911424
200,9.25390547571073
201,25.40764666178291
202,24.43862837656755
18,20320666.426789177
54,12977169.904799996
481,0.0
2,1, 1, 1, 0,16, 0.00,60.00,Tuesday
7,17.916666666666669
8,6.741666666666667
9,101400.0
10,5.766666666666667
11,315.8333333333333
12,78.75
13,674.8333333333334
14,211.7556132685896
15,22.31019206654837
199,0.4497474643202432
200,9.22087539596093
201,25.63820519748721
202,24.53271831945882
18,21327915.372932786
54,12977169.904799996
481,0.0
2,1, 1, 1, 0,17, 0.00,60.00,Tuesday
7,17.008333333333334
8,5.8500000000000009
9,101458.33333333333
10,4.691666666666666
11,320.0
12,66.66666666666667
13,489.5
14,224.1001522786615
15,14.990062847701239
199,0.44281353515723489
200,9.090988571328014
201,25.716067966507479
202,24.59995736305059
18,20945217.064177425
54,12977169.904799996
481,0.0
2,1, 1, 1, 0,18, 0.00,60.00,Tuesday
7,15.366666666666668
8,5.25
9,101558.33333333333
10,4.05
11,320.0
12,36.833333333333339
13,186.16666666666667
14,234.7074119287372
15,5.952040883079925
199,0.43620097466351628
200,8.968775133167699
201,25.533305049830135
202,24.647205279868787
18,18744920.35206089
54,12977169.904799996
481,0.0
2,1, 1, 1, 0,19, 0.00,60.00,Tuesday
7,13.708333333333334
8,4.591666666666668
9,101658.33333333333
10,3.391666666666667
11,180.83333333333335
12,2.3888888888888886
13,10.499999999999999
14,243.968053901516
15,-4.28325732831572
199,0.43542321665845859
200,8.95469585098747
201,25.219213657319263
202,24.691207907400075
18,15809760.265007914
54,12977169.904799996
481,0.0
2,1, 1, 1, 0,20, 0.00,60.00,Tuesday
7,12.183333333333332
8,3.891666666666666
9,101758.33333333333
10,3.1
11,30.0
12,0.0
13,0.0
14,252.3728314316605
15,-15.32640034685263
199,0.39416088802721757
200,8.25130133869734
201,24.79948122889449
202,24.561564445687464
18,966528.0154354514
54,0.0
481,0.0
2,1, 1, 1, 0,21, 0.00,60.00,Tuesday
7,10.783333333333334
8,3.1916666666666666
9,101800.0
10,3.1
11,30.0
12,0.0
13,0.0
14,260.465780141297
15,-26.88747050882122
199,0.2881366755869415
200,6.745279172940871
201,24.42644632475277
202,24.17962502559799
18,966528.0154354514
54,0.0
481,0.0
2,1, 1, 1, 0,22, 0.00,60.00,Tuesday
7,9.383333333333333
8,2.433333333333333
9,101858.33333333333
10,3.1
11,223.33333333333335
12,0.0
13,0.0
14,268.9421984167647
15,-38.72707446316059
199,0.18190919037396745
200,5.703874819201455
201,24.108483643047604
202,23.80258431862066
18,966528.0154354514
54,0.0
481,0.0
2,1, 1, 1, 0,23, 0.00,60.00,Tuesday
7,8.508333333333333
8,2.275
9,101958.33333333333
10,3.1
11,310.0
12,0.0
13,0.0
14,278.98041803604
15,-50.58472031583862
199,0.08716312314676746
200,5.168883871926492
201,23.823987656339566
202,23.470065330753014
18,966528.0154354514
54,0.0
481,0.0
2,1, 1, 1, 0,24, 0.00,60.00,Tuesday
7,8.066666666666669
8,2.6333333333333335
9,102000.0
10,3.1
11,310.0
12,0.0
13,0.0
14,293.3024686097
15,-62.00146018253438
199,0.012604975159945811
200,5.0108825530429359
201,23.575854251432124
202,23.207454639941145
18,966528.0154354514
54,0.0
481,0.0
2,2, 1, 2, 0, 1, 0.00,60.00,Wednesday
7,7.608333333333333
8,2.975
9,102058.33333333333
10,3.1
11,230.83333333333335
12,0.0
13,0.0
14,40.59411648186673
15,-71.48357404582942
199,-0.05040584135034613
200,5.058670661334889
201,23.35334354804834
202,22.97726540494827
18,966528.0154354514
54,0.0
481,0.0
2,2, 1, 2, 0, 2, 0.00,60.00,Wednesday
7,6.875
8,2.983333333333333
9,102100.0
10,3.1
11,20.0
12,0.0
13,0.0
14,14.151199731088099
15,-75.05056292976181
199,-0.11054447630740343
200,5.259574452591434
201,23.14423731409427
202,22.75113880579421
18,966528.0154354514
54,0.0
481,0.0
2,2, 1, 2, 0, 3, 0.00,60.00,Wednesday
7,6.033333333333334
8,2.725
9,102158.33333333333
10,3.1
11,20.0
12,0.0
13,0.0
14,49.04940811645537
15,-69.38694522590913
199,-0.1725141621320487
200,5.623150296821173
201,22.94079207362094
202,22.5180331485284
18,966528.0154354514
54,0.0
481,0.0
2,2, 1, 2, 0, 4, 0.00,60.00,Wednesday
7,5.175
8,2.4833333333333336
9,102200.0
10,3.1
11,37.5
12,0.0
13,0.0
14,70.99374271346024
15,-59.06837696748304
199,-0.23318314649143039
200,6.134577424295927
201,22.74243775166003
202,22.29033039059828
18,966528.0154354514
54,0.0
481,0.0
2,2, 1, 2, 0, 5, 0.00,60.00,Wednesday
7,4.858333333333333
8,2.225
9,102258.33333333333
10,3.1
11,50.0
12,0.0
13,0.0
14,83.78507389726467
15,-47.470931439104287
199,-0.288550653798578
200,6.733265868714265
201,22.560078740659248
202,22.085621082987843
18,966528.0154354514
54,0.0
481,0.0
2,2, 1, 2, 0, 6, 0.00,60.00,Wednesday
7,4.8999999999999999
8,1.925
9,102300.0
10,3.1
11,50.0
12,0.0
13,0.0
14,93.26663902381263
15,-35.587685730915399
199,-0.32968025226421968
200,7.262779746414206
201,22.405694493189043
202,21.937965377880258
18,966528.0154354514
54,0.0
481,0.0
2,2, 1, 2, 0, 7, 0.00,60.00,Wednesday
7,4.958333333333333
8,1.625
9,102358.33333333333
10,3.1
11,50.0
12,0.0
13,0.0
14,101.5701343611504
15,-23.79595384969303
199,-0.3654040455916477
200,7.780978023883219
201,22.27094801843641
202,21.81061903522163
18,966528.0154354514
54,0.0
481,0.0
2,2, 1, 2, 0, 8, 0.00,60.00,Wednesday
7,5.466666666666666
8,1.3833333333333338
9,102400.0
10,3.625
11,50.0
12,0.0
13,0.0
14,109.69438559685993
15,-12.341650437276443
199,-0.34182858500324617
200,7.4378510608324179
201,22.405777108280618
202,21.929691248533783
18,13943697.920235448
54,12977169.904799996
481,0.0
2,2, 1, 2, 0, 9, 0.00,60.00,Wednesday
7,6.325
8,1.125
9,102458.33333333333
10,4.466666666666667
11,50.0
12,7.666666666666667
13,29.86111111111111
14,118.2783471275652
15,-1.4722599823745653
199,-0.293217176940338
200,6.790317136708469
201,22.57284638914616
202,22.14701642682655
18,13943697.920235448
54,12977169.904799996
481,0.0
2,2, 1, 2, 0,10, 0.00,60.00,Wednesday
7,7.166666666666667
8,0.8833333333333333
9,102500.0
10,5.325
11,50.0
12,55.166666666666667
13,239.91666666666667
14,127.85043813369617
15,8.500393563462533
199,-0.22579073367458217
200,6.065748239751994
201,22.858449568701418
202,22.437695270913286
18,13943697.920235448
54,12977169.904799996
481,0.0
2,2, 1, 2, 0,11, 0.00,60.00,Wednesday
7,7.966666666666666
8,0.6833333333333335
9,102558.33333333333
10,6.166666666666667
11,50.0
12,92.41666666666667
13,493.0833333333333
14,138.88793997966807
15,17.15407592789404
199,-0.16043500209325607
200,5.5393118421863509
201,23.101328793518119
202,22.71366093668402
18,13943697.920235448
54,12977169.904799996
481,0.0
2,2, 1, 2, 0,12, 0.00,60.00,Wednesday
7,8.825000000000001
8,0.425
9,102600.0
10,7.0249999999999999
11,50.0
12,80.41666666666667
13,718.9166666666666
14,151.73024189953564
15,23.93322271217028
199,-0.10632152464617345
200,5.239881279221649
201,23.294545246823345
202,22.9397053037346
18,13943697.920235448
54,12977169.904799996
481,0.0
2,2, 1, 2, 0,13, 0.00,60.00,Wednesday
7,9.666666666666666
8,0.18333333333333336
9,102658.33333333333
10,7.866666666666667
11,55.833333333333339
12,77.5
13,802.75
14,166.3321559158622
15,28.198672556495344
199,-0.03461724701043602
200,5.037613998118377
201,23.5890079083557
202,23.237642492380478
18,13943697.920235448
54,12977169.904799996
481,0.0
2,2, 1, 2, 0,14, 0.00,60.00,Wednesday
7,10.583333333333334
8,-0.5416666666666666
9,102641.66666666667
10,7.908333333333334
11,65.83333333333333
12,78.33333333333333
13,821.0
14,181.998215954326
15,29.410997417084489
199,0.06385411185763247
200,5.104602566415679
201,24.007792996239958
202,23.647639284903364
18,13943697.920235448
54,12977169.904799996
481,0.0
2,2, 1, 2, 0,15, 0.00,60.00,Wednesday
7,11.408333333333334
8,-1.0583333333333334
9,102600.0
10,7.875
11,70.0
12,75.75
13,795.3333333333334
14,197.49835460052308
15,27.391984605017073
199,0.17803702128370417
200,5.679461461791952
201,24.477114633364466
202,24.124544272956809
18,13943697.920235448
54,12977169.904799996
481,0.0
2,2, 1, 2, 0,16, 0.00,60.00,Wednesday
7,12.108333333333333
8,-0.9833333333333334
9,102600.0
10,8.116666666666668
11,70.0
12,72.58333333333333
13,708.5
14,211.69298889239259
15,22.43187473253091
199,0.2874908962462938
200,6.734435817220685
201,24.909330964331845
202,24.57460741940386
18,13943697.920235448
54,12977169.904799996
481,0.0
2,2, 1, 2, 0,17, 0.00,60.00,Wednesday
7,12.166666666666666
8,-0.7833333333333333
9,102600.0
10,7.616666666666667
11,70.0
12,65.33333333333333
13,505.6666666666667
14,224.0627527396399
15,15.119938035049663
199,0.3632590252117454
200,7.749595661622166
201,25.17065694402906
202,24.87778540769487
18,13943697.920235448
54,12977169.904799996
481,0.0
2,2, 1, 2, 0,18, 0.00,60.00,Wednesday
7,11.766666666666666
8,-0.46666666666666675
9,102600.0
10,6.558333333333334
11,70.0
12,39.666666666666667
13,177.41666666666667
14,234.68937154034425
15,6.085675793725433
199,0.3583937324032403
200,7.676197655139103
201,25.072652758391255
202,24.842646051412517
18,13943697.920235448
54,12977169.904799996
481,0.0
2,2, 1, 2, 0,19, 0.00,60.00,Wednesday
7,11.366666666666668
8,-0.06666666666666667
9,102600.0
10,5.516666666666666
11,75.83333333333333
12,2.6111111111111104
13,9.72222222222222
14,243.9643733432755
15,-4.148445612635604
199,0.29433869017981126
200,6.8095378847953829
201,24.754304545858603
202,24.563322826696209
18,13943697.920235448
54,12977169.904799996
481,0.0
2,2, 1, 2, 0,20, 0.00,60.00,Wednesday
7,10.383333333333333
8,0.5083333333333333
9,102600.0
10,4.691666666666666
11,80.0
12,0.0
13,0.0
14,252.38000244020507
15,-15.191690865959549
199,0.1770332617421022
200,5.689415087522811
201,24.260962421410424
202,24.06969447311525
18,966528.0154354514
54,0.0
481,0.0
2,2, 1, 2, 0,21, 0.00,60.00,Wednesday
7,8.983333333333335
8,1.2083333333333333
9,102600.0
10,4.05
11,80.0
12,0.0
13,0.0
14,260.4814039706438
15,-26.753285286256796
199,0.05154594602412688
200,5.073619309632072
201,23.82861470558365
202,23.549998565232369
18,966528.0154354514
54,0.0
481,0.0
2,2, 1, 2, 0,22, 0.00,60.00,Wednesday
7,7.583333333333333
8,1.8499999999999999
9,102600.0
10,3.391666666666667
11,56.666666666666667
12,0.0
13,0.0
14,268.96388976011056
15,-38.59322502871041
199,-0.04531576778539547
200,5.0561957472256469
201,23.487747521487767
202,23.145641770835643
18,966528.0154354514
54,0.0
481,0.0
2,2, 1, 2, 0,23, 0.00,60.00,Wednesday
7,6.591666666666666
8,1.8666666666666665
9,102600.0
10,2.9250000000000004
11,40.0
12,0.0
13,0.0
14,279.00241096087458
15,-50.45055953392778
199,-0.1282909197944543
200,5.350236632315526
201,23.19290576014257
202,22.79991070383062
18,966528.0154354514
54,0.0
481,0.0
2,2, 1, 2, 0,24, 0.00,60.00,Wednesday
7,5.95
8,1.4666666666666668
9,102600.0
10,2.566666666666667
11,40.0
12,0.0
13,0.0
14,293.300249770607
15,-61.86672634998448
199,-0.1976043896423666
200,5.816873571408959
201,22.938323515540906
202,22.51955455283824
18,966528.0154354514
54,0.0
481,0.0
2,3, 1, 3, 0, 1, 0.00,60.00,Thursday
7,5.291666666666667
8,1.0666666666666669
9,102600.0
10,2.225
11,45.833333333333339
12,0.0
13,0.0
14,40.718811350492419
15,-71.35129404472258
199,-0.2607270881785574
200,6.417839399763207
201,22.711453049979644
202,22.27219239651414
18,966528.0154354514
54,0.0
481,0.0
2,3, 1, 3, 0, 2, 0.00,60.00,Thursday
7,4.708333333333333
8,0.7833333333333333
9,102541.66666666667
10,2.1
11,50.0
12,0.0
13,0.0
14,13.955269631741393
15,-74.97313587929286
199,-0.32046250797770989
200,7.14064620759449
201,22.50379244209309
202,22.04353222449021
18,966528.0154354514
54,0.0
481,0.0
2,3, 1, 3, 0, 3, 0.00,60.00,Thursday
7,4.266666666666667
8,0.5833333333333334
9,102500.0
10,2.1
11,50.0
12,0.0
13,0.0
14,48.65183319085387
15,-69.38664358536237
199,-0.3734479141187053
200,7.907601315598285
201,22.314447871256275
202,21.839643691104134
18,966528.0154354514
54,0.0
481,0.0
2,3, 1, 3, 0, 4, 0.00,60.00,Thursday
7,3.8083333333333337
8,0.44166666666666667
9,102500.0
10,2.1
11,38.333333333333339
12,0.0
13,0.0
14,70.72886908013247
15,-59.101926281405578
199,-0.42196126211480219
200,8.71637537755464
201,22.13918924713221
202,21.652082162709559
18,966528.0154354514
54,0.0
481,0.0
2,3, 1, 3, 0, 5, 0.00,60.00,Thursday
7,3.716666666666667
8,0.2833333333333333
9,102500.0
10,2.216666666666667
11,30.0
12,0.0
13,0.0
14,83.58911308838764
15,-47.51496932445449
199,-0.453510973454752
200,9.292328516993257
201,21.991620791314018
202,21.53538605259458
18,1772375.9982615733
54,0.0
481,0.0
2,3, 1, 3, 0, 6, 0.00,60.00,Thursday
7,3.9166666666666667
8,0.08333333333333333
9,102441.66666666667
10,2.475
11,30.0
12,0.0
13,0.0
14,93.10464877340614
15,-35.632814126363857
199,-0.4537550378002066
200,9.29693019550502
201,21.90122732626907
202,21.550707242755366
18,2511317.4607103967
54,0.0
481,0.0
2,3, 1, 3, 0, 7, 0.00,60.00,Thursday
7,4.116666666666666
8,-0.05833333333333333
9,102400.0
10,1.6666666666666668
11,35.833333333333339
12,0.0
13,0.0
14,101.42494019445656
15,-23.83709123718833
199,-0.4521430749031516
200,9.266239342639212
201,21.849296042724985
202,21.564598903529914
18,2847986.1507767348
54,0.0
481,0.0
2,3, 1, 3, 0, 8, 0.00,60.00,Thursday
7,4.258333333333334
8,-0.041666666666666667
9,102400.0
10,1.0
11,40.0
12,0.0
13,0.0
14,109.55627167318197
15,-12.374974293403883
199,-0.44070880452462748
200,9.051809377634463
201,22.02688260605108
202,21.62469844499844
18,14047940.319677558
54,12977169.904799996
481,0.0
2,3, 1, 3, 0, 9, 0.00,60.00,Thursday
7,4.416666666666667
8,0.11666666666666666
9,102458.33333333333
10,1.0
11,40.0
12,7.8055555555555549
13,19.305555555555555
14,118.14111232326202
15,-1.4940664652486247
199,-0.4245415085071575
200,8.75988513326177
201,22.157074904795306
202,21.696714534332626
18,13943697.920235448
54,12977169.904799996
481,0.0
2,3, 1, 3, 0,10, 0.00,60.00,Thursday
7,4.558333333333334
8,0.31666666666666667
9,102500.0
10,1.0
11,45.833333333333339
12,59.916666666666667
13,136.91666666666667
14,127.71018819226568
15,8.494205765194126
199,-0.3772873330556166
200,7.967532912759817
201,22.38507932387711
202,21.90046611184358
18,13943697.920235448
54,12977169.904799996
481,0.0
2,3, 1, 3, 0,11, 0.00,60.00,Thursday
7,5.708333333333333
8,0.75
9,102500.0
10,1.8166666666666667
11,50.0
12,126.83333333333333
13,173.91666666666667
14,138.74347142110075
15,17.168100000445926
199,-0.3237411869772739
200,7.186435679626683
201,22.587265342095134
202,22.119520173559477
18,13943697.920235448
54,12977169.904799996
481,0.0
2,3, 1, 3, 0,12, 0.00,60.00,Thursday
7,7.55
8,1.2916666666666668
9,102500.0
10,3.158333333333333
11,50.0
12,165.91666666666667
13,85.33333333333333
14,151.58462428245947
15,23.9719601698352
199,-0.2530372298544414
200,6.338236645765295
201,22.791368126298097
202,22.393418801512174
18,13943697.920235448
54,12977169.904799996
481,0.0
2,3, 1, 3, 0,13, 0.00,60.00,Thursday
7,9.408333333333334
8,1.8499999999999999
9,102500.0
10,4.516666666666667
11,50.0
12,149.16666666666667
13,9.999999999999999
14,166.1941374104007
15,28.26492184753175
199,-0.18394895697652129
200,5.710044125618656
201,22.96295986862962
202,22.6517017565194
18,13943697.920235448
54,12977169.904799996
481,0.0
2,3, 1, 3, 0,14, 0.00,60.00,Thursday
7,10.725
8,1.5166666666666667
9,102441.66666666667
10,4.808333333333334
11,50.0
12,188.25
13,17.5
14,181.88014474351705
15,29.503756393734535
199,-0.10372626483781455
200,5.234082800012419
201,23.212666190664107
202,22.955405978634773
18,13943697.920235448
54,12977169.904799996
481,0.0
2,3, 1, 3, 0,15, 0.00,60.00,Thursday
7,11.625
8,0.4583333333333333
9,102341.66666666667
10,4.308333333333334
11,61.666666666666667
12,199.5
13,46.833333333333339
14,197.40957051771725
15,27.505951814857423
199,-0.02204674924563242
200,5.0209588699842959
201,23.505773275187229
202,23.278744745268935
18,13943697.920235448
54,12977169.904799996
481,0.0
2,3, 1, 3, 0,16, 0.00,60.00,Thursday
7,12.466666666666667
8,0.875
9,102300.0
10,3.8083333333333337
11,70.0
12,166.08333333333335
13,69.41666666666667
14,211.6349538624536
15,22.559708800227268
199,0.051306836676849879
200,5.061255990591285
201,23.75086929243095
202,23.572331108365856
18,13943697.920235448
54,12977169.904799996
481,0.0
2,3, 1, 3, 0,17, 0.00,60.00,Thursday
7,12.625
8,1.8499999999999999
9,102300.0
10,3.1916666666666666
11,70.0
12,98.58333333333333
13,16.833333333333333
14,224.0308482158564
15,15.255144886246385
199,0.08772604650042482
200,5.159484383049443
201,23.80698622221954
202,23.697781280672719
18,13943697.920235448
54,12977169.904799996
481,0.0
2,3, 1, 3, 0,18, 0.00,60.00,Thursday
7,12.383333333333335
8,2.4499999999999999
9,102300.0
10,2.4916666666666669
11,70.0
12,29.25
13,1.083333333333333
14,234.67739149655135
15,6.223866420090584
199,0.07819310970921155
200,5.127127655062118
201,23.721511165051795
202,23.630648860625894
18,13943697.920235448
54,12977169.904799996
481,0.0
2,3, 1, 3, 0,19, 0.00,60.00,Thursday
7,12.125
8,3.0500000000000004
9,102300.0
10,1.7916666666666668
11,83.33333333333333
12,1.6111111111111108
13,0.0
14,243.96719646338102
15,-4.00973907553675
199,0.06290733992605389
200,5.082231216899873
201,23.641285636362509
202,23.54086777696868
18,13943697.920235448
54,12977169.904799996
481,0.0
2,3, 1, 3, 0,20, 0.00,60.00,Thursday
7,10.25
8,2.9500000000000008
9,102300.0
10,1.0333333333333335
11,350.0
12,0.0
13,0.0
14,252.3941808236218
15,-15.053603324561104
199,-0.01518514857894055
200,5.038038453821604
201,23.309994578409513
202,23.195496837283004
18,966528.0154354514
54,0.0
481,0.0
2,3, 1, 3, 0,21, 0.00,60.00,Thursday
7,7.25
8,2.2916666666666667
9,102300.0
10,0.2916666666666667
11,295.8333333333333
12,0.0
13,0.0
14,260.5047625817176
15,-26.616075399117645
199,-0.14256013735202795
200,5.4443656985371409
201,22.952938071179547
202,22.677083065193899
18,966528.0154354514
54,0.0
481,0.0
2,3, 1, 3, 0,22, 0.00,60.00,Thursday
7,6.583333333333333
8,2.058333333333333
9,102300.0
10,0.875
11,23.333333333333333
12,0.0
13,0.0
14,268.9944689085915
15,-38.456502983521819
199,-0.23903306401454786
200,6.192342600588941
201,22.673767836562054
202,22.29946685174056
18,966528.0154354514
54,0.0
481,0.0
2,3, 1, 3, 0,23, 0.00,60.00,Thursday
7,6.708333333333333
8,1.925
9,102300.0
10,1.6166666666666665
11,40.0
12,0.0
13,0.0
14,279.03520399948595
15,-50.313378548961
199,-0.2892343314438452
200,6.742249513608257
201,22.466446701067857
202,22.10604830598052
18,966528.0154354514
54,0.0
481,0.0
2,3, 1, 3, 0,24, 0.00,60.00,Thursday
7,6.266666666666667
8,1.5666666666666667
9,102300.0
10,1.8166666666666667
11,40.0
12,0.0
13,0.0
14,293.3120548452598
15,-61.728261376818348
199,-0.3403564438479887
200,7.414009811949906
201,22.283157635109406
202,21.911586196756777
18,966528.0154354514
54,0.0
481,0.0
2,4, 1, 4, 0, 1, 0.00,60.00,Friday
7,5.808333333333333
8,1.2249999999999999
9,102358.33333333333
10,2.0166666666666668
11,45.833333333333339
12,0.0
13,0.0
14,40.82593075119323
15,-71.21346595188948
199,-0.3897345591084462
200,8.168033688788514
201,22.11230763181686
202,21.72680250065649
18,966528.0154354514
54,0.0
481,0.0
2,4, 1, 4, 0, 2, 0.00,60.00,Friday
7,5.425
8,1.3333333333333333
9,102400.0
10,2.216666666666667
11,50.0
12,0.0
13,0.0
14,13.755982644214124
15,-74.887565388705
199,-0.4355887610614037
200,8.960296828914748
201,21.95316585455119
202,21.5525951006467
18,1047976.8679439217
54,0.0
481,0.0
2,4, 1, 4, 0, 3, 0.00,60.00,Friday
7,5.125
8,1.7916666666666668
9,102400.0
10,2.475
11,44.166666666666667
12,0.0
13,0.0
14,48.24365638212267
15,-69.37900730461522
199,-0.4540643241797595
200,9.302830732242425
201,21.82311537548317
202,21.485299056908617
18,2018596.7082822803
54,0.0
481,0.0
2,4, 1, 4, 0, 4, 0.00,60.00,Friday
7,4.766666666666667
8,1.5916666666666668
9,102400.0
10,2.191666666666667
11,40.0
12,0.0
13,0.0
14,70.45302500617261
15,-59.12961887369681
199,-0.45300856795821739
200,9.282699967825059
201,21.735302579328054
202,21.488473815195776
18,2839719.0879270385
54,0.0
481,0.0
2,4, 1, 4, 0, 5, 0.00,60.00,Friday
7,4.366666666666666
8,0.8333333333333334
9,102400.0
10,1.55
11,40.0
12,0.0
13,0.0
14,83.38425822613185
15,-47.55379764397807
199,-0.4529142850881966
200,9.280904837934921
201,21.670400086419588
202,21.493579726774283
18,3509843.7571896987
54,0.0
481,0.0
2,4, 1, 4, 0, 6, 0.00,60.00,Friday
7,3.966666666666667
8,0.03333333333333333
9,102341.66666666667
10,0.8916666666666666
11,40.0
12,0.0
13,0.0
14,92.93531358139926
15,-35.672904702623828
199,-0.452997054400166
200,9.282480642239604
201,21.619713218712005
202,21.506041645210414
18,4125609.2886072068
54,0.0
481,0.0
2,4, 1, 4, 0, 7, 0.00,60.00,Friday
7,3.5666666666666666
8,-0.7083333333333334
9,102300.0
10,0.25
11,16.666666666666669
12,0.0
13,0.0
14,101.27345658332911
15,-23.873104369462224
199,-0.452846222825749
200,9.279609274933457
201,21.580298181566265
202,21.525290144845817
18,4691484.033987254
54,0.0
481,0.0
2,4, 1, 4, 0, 8, 0.00,60.00,Friday
7,4.041666666666667
8,-0.9416666666666669
9,102358.33333333333
10,0.525
11,0.0
12,0.0
13,0.0
14,109.41262937683114
15,-12.402923568740084
199,-0.44415170216535579
200,9.115894521470994
201,21.76741764862754
202,21.593779200978209
18,15768862.305511233
54,12977169.904799996
481,0.0
2,4, 1, 4, 0, 9, 0.00,60.00,Friday
7,5.2
8,-0.725
9,102400.0
10,1.425
11,0.0
12,7.666666666666667
13,30.0
14,117.9989766478907
15,-1.5101300613779226
199,-0.44653445828179158
200,9.1605898664614
201,21.90467137999677
202,21.610681554234714
18,14573707.563217048
54,12977169.904799996
481,0.0
2,4, 1, 4, 0,10, 0.00,60.00,Friday
7,6.341666666666666
8,-0.425
9,102400.0
10,2.3249999999999999
11,0.0
12,55.166666666666667
13,241.0
14,127.5656793324336
15,8.494213341310824
199,-0.4143268587420719
200,8.583519258048414
201,22.153039454018268
202,21.76051548945891
18,13943697.920235448
54,12977169.904799996
481,0.0
2,4, 1, 4, 0,11, 0.00,60.00,Friday
7,7.5
8,-0.125
9,102458.33333333333
10,3.225
11,35.0
12,92.41666666666667
13,494.5
14,138.59556636251808
15,17.188808596773688
199,-0.35237530886265108
200,7.590410542911973
201,22.37306943083642
202,22.01547951936654
18,13943697.920235448
54,12977169.904799996
481,0.0
2,4, 1, 4, 0,12, 0.00,60.00,Friday
7,8.875
8,0.5833333333333334
9,102500.0
10,2.841666666666667
11,60.0
12,80.58333333333333
13,717.8333333333334
14,151.43675343050914
15,24.017821088733404
199,-0.28772738678399337
200,6.7302714605988
201,22.58056015504574
202,22.270962519134746
18,13943697.920235448
54,12977169.904799996
481,0.0
2,4, 1, 4, 0,13, 0.00,60.00,Friday
7,10.375
8,1.5833333333333333
9,102441.66666666667
10,1.5416666666666668
11,60.0
12,78.41666666666667
13,799.4166666666666
14,166.05551507072895
15,28.338544883193284
199,-0.18837721982264275
200,5.761452265305017
201,22.944631731761175
202,22.65940218881747
18,13943697.920235448
54,12977169.904799996
481,0.0
2,4, 1, 4, 0,14, 0.00,60.00,Friday
7,11.641666666666666
8,2.0
9,102400.0
10,1.0
11,60.0
12,79.5
13,815.4166666666666
14,181.76344351001868
15,29.60380388865191
199,-0.05339979563791114
200,5.093047014041201
201,23.442125884011025
202,23.18185222729477
18,13943697.920235448
54,12977169.904799996
481,0.0
2,4, 1, 4, 0,15, 0.00,60.00,Friday
7,12.800000000000003
8,2.0
9,102341.66666666667
10,1.0
11,60.0
12,77.5
13,790.5833333333334
14,197.32403923259816
15,27.626739585605095
199,0.09352872437967887
200,5.219328065494861
201,23.986737107586607
202,23.75299683624085
18,13943697.920235448
54,12977169.904799996
481,0.0
2,4, 1, 4, 0,16, 0.00,60.00,Friday
7,13.941666666666669
8,2.0
9,102241.66666666667
10,1.0
11,159.16666666666667
12,73.66666666666667
13,706.3333333333334
14,211.5815868857948
15,22.69362232618432
199,0.23933406870978925
200,6.220747778826589
201,24.50816896888085
202,24.31968572127451
18,13943697.920235448
54,12977169.904799996
481,0.0
2,4, 1, 4, 0,17, 0.00,60.00,Friday
7,14.75
8,1.4166666666666668
9,102200.0
10,0.7083333333333334
11,241.66666666666667
12,65.83333333333333
13,514.0
14,224.00450287371394
15,15.395598191399076
199,0.3551885319533467
200,7.6383319033552798
201,24.876335640131314