Program Version,EnergyPlus, Version 9.4.0-998c4b761e, YMD=2025.12.13 09:33
1,5,Environment Title[],Latitude[deg],Longitude[deg],Time Zone[],Elevation[m]
2,8,Day of Simulation[],Month[],Day of Month[],DST Indicator[1=yes 0=no],Hour[],StartMinute[],EndMinute[],DayType
3,5,Cumulative Day of Simulation[],Month[],Day of Month[],DST Indicator[1=yes 0=no],DayType  ! When Daily Meters Requested
4,2,Cumulative Days of Simulation[],Month[]  ! When Monthly Meters Requested
5,1,Cumulative Days of Simulation[] ! When Run Period Meters Requested
6,1,Calendar Year of Simulation[] ! When Annual Meters Requested
18,1,Electricity:Facility [J] !Hourly
54,1,InteriorLights:Electricity [J] !Hourly
481,1,Carbon Equivalent:Facility [kg] !Hourly
End of Data Dictionary
1,CICSE ALJARAFE CENTER (01-01:31-12),  37.42,  -5.90,   1.00,  31.00
2,1, 1, 1, 0, 1, 0.00,60.00,Tuesday
18,966528.0154354514
54,0.0
481,0.0
2,1, 1, 1, 0, 2, 0.00,60.00,Tuesday
18,966528.0154354514
54,0.0
481,0.0
2,1, 1, 1, 0, 3, 0.00,60.00,Tuesday
18,966528.0154354514
54,0.0
481,0.0
2,1, 1, 1, 0, 4, 0.00,60.00,Tuesday
18,966528.0154354514
54,0.0
481,0.0
2,1, 1, 1, 0, 5, 0.00,60.00,Tuesday
18,966528.0154354514
54,0.0
481,0.0
2,1, 1, 1, 0, 6, 0.00,60.00,Tuesday
18,966528.0154354514
54,0.0
481,0.0
2,1, 1, 1, 0, 7, 0.00,60.00,Tuesday
18,966528.0154354514
54,0.0
481,0.0
2,1, 1, 1, 0, 8, 0.00,60.00,Tuesday
18,13943697.920235448
54,12977169.904799996
481,0.0
2,1, 1, 1, 0, 9, 0.00,60.00,Tuesday
18,14182909.27381632
54,12977169.904799996
481,0.0
2,1, 1, 1, 0,10, 0.00,60.00,Tuesday
18,14945811.509363983
54,12977169.904799996
481,0.0
2,1, 1, 1, 0,11, 0.00,60.00,Tuesday
18,16084696.907676693
54,12977169.904799996
481,0.0
2,1, 1, 1, 0,12, 0.00,60.00,Tuesday
18,17213901.203122789
54,12977169.904799996
481,0.0
2,1, 1, 1, 0,13, 0.00,60.00,Tuesday
18,18119612.936867797
54,12977169.904799996
481,0.0
2,1, 1, 1, 0,14, 0.00,60.00,Tuesday
18,19218914.135479504
54,12977169.904799996
481,0.0
2,1, 1, 1, 0,15, 0.00,60.00,Tuesday
18,20320666.426789177
54,12977169.904799996
481,0.0
2,1, 1, 1, 0,16, 0.00,60.00,Tuesday
18,21327915.372932786
54,12977169.904799996
481,0.0
2,1, 1, 1, 0,17, 0.00,60.00,Tuesday
18,20945217.064177425
54,12977169.904799996
481,0.0
2,1, 1, 1, 0,18, 0.00,60.00,Tuesday
18,18744920.35206089
54,12977169.904799996
481,0.0
2,1, 1, 1, 0,19, 0.00,60.00,Tuesday
18,15809760.265007914
54,12977169.904799996
481,0.0
2,1, 1, 1, 0,20, 0.00,60.00,Tuesday
18,966528.0154354514
54,0.0
481,0.0
2,1, 1, 1, 0,21, 0.00,60.00,Tuesday
18,966528.0154354514
54,0.0
481,0.0
2,1, 1, 1, 0,22, 0.00,60.00,Tuesday
18,966528.0154354514
54,0.0
481,0.0
2,1, 1, 1, 0,23, 0.00,60.00,Tuesday
18,966528.0154354514
54,0.0
481,0.0
2,1, 1, 1, 0,24, 0.00,60.00,Tuesday
18,966528.0154354514
54,0.0
481,0.0
2,2, 1, 2, 0, 1, 0.00,60.00,Wednesday
18,966528.0154354514
54,0.0
481,0.0
2,2, 1, 2, 0, 2, 0.00,60.00,Wednesday
18,966528.0154354514
54,0.0
481,0.0
2,2, 1, 2, 0, 3, 0.00,60.00,Wednesday
18,966528.0154354514
54,0.0
481,0.0
2,2, 1, 2, 0, 4, 0.00,60.00,Wednesday
18,966528.0154354514
54,0.0
481,0.0
2,2, 1, 2, 0, 5, 0.00,60.00,Wednesday
18,966528.0154354514
54,0.0
481,0.0
2,2, 1, 2, 0, 6, 0.00,60.00,Wednesday
18,966528.0154354514
54,0.0
481,0.0
2,2, 1, 2, 0, 7, 0.00,60.00,Wednesday
18,966528.0154354514
54,0.0
481,0.0
2,2, 1, 2, 0, 8, 0.00,60.00,Wednesday
18,13943697.920235448
54,12977169.904799996
481,0.0
2,2, 1, 2, 0, 9, 0.00,60.00,Wednesday
18,13943697.920235448
54,12977169.904799996
481,0.0
2,2, 1, 2, 0,10, 0.00,60.00,Wednesday
18,13943697.920235448
54,12977169.904799996
481,0.0
2,2, 1, 2, 0,11, 0.00,60.00,Wednesday
18,13943697.920235448
54,12977169.904799996
481,0.0
2,2, 1, 2, 0,12, 0.00,60.00,Wednesday
18,13943697.920235448
54,12977169.904799996
481,0.0
2,2, 1, 2, 0,13, 0.00,60.00,Wednesday
18,13943697.920235448
54,12977169.904799996
481,0.0
2,2, 1, 2, 0,14, 0.00,60.00,Wednesday
18,13943697.920235448
54,12977169.904799996
481,0.0
2,2, 1, 2, 0,15, 0.00,60.00,Wednesday
18,13943697.920235448
54,12977169.904799996
481,0.0
2,2, 1, 2, 0,16, 0.00,60.00,Wednesday
18,13943697.920235448
54,12977169.904799996
481,0.0
2,2, 1, 2, 0,17, 0.00,60.00,Wednesday
18,13943697.920235448
54,12977169.904799996
481,0.0
2,2, 1, 2, 0,18, 0.00,60.00,Wednesday
18,13943697.920235448
54,12977169.904799996
481,0.0
2,2, 1, 2, 0,19, 0.00,60.00,Wednesday
18,13943697.920235448
54,12977169.904799996
481,0.0
2,2, 1, 2, 0,20, 0.00,60.00,Wednesday
18,966528.0154354514
54,0.0
481,0.0
2,2, 1, 2, 0,21, 0.00,60.00,Wednesday
18,966528.0154354514
54,0.0
481,0.0
2,2, 1, 2, 0,22, 0.00,60.00,Wednesday
18,966528.0154354514
54,0.0
481,0.0
2,2, 1, 2, 0,23, 0.00,60.00,Wednesday
18,966528.0154354514
54,0.0
481,0.0
2,2, 1, 2, 0,24, 0.00,60.00,Wednesday
18,966528.0154354514
54,0.0
481,0.0
2,3, 1, 3, 0, 1, 0.00,60.00,Thursday
18,966528.0154354514
54,0.0
481,0.0
2,3, 1, 3, 0, 2, 0.00,60.00,Thursday
18,966528.0154354514
54,0.0
481,0.0
2,3, 1, 3, 0, 3, 0.00,60.00,Thursday
18,966528.0154354514
54,0.0
481,0.0
2,3, 1, 3, 0, 4, 0.00,60.00,Thursday
18,966528.0154354514
54,0.0
481,0.0
2,3, 1, 3, 0, 5, 0.00,60.00,Thursday
18,1772375.9982615733
54,0.0
481,0.0
2,3, 1, 3, 0, 6, 0.00,60.00,Thursday
18,2511317.4607103967
54,0.0
481,0.0
2,3, 1, 3, 0, 7, 0.00,60.00,Thursday
18,2847986.1507767348
54,0.0
481,0.0
2,3, 1, 3, 0, 8, 0.00,60.00,Thursday
18,14047940.319677558
54,12977169.904799996
481,0.0
2,3, 1, 3, 0, 9, 0.00,60.00,Thursday
18,13943697.920235448
54,12977169.904799996
481,0.0
2,3, 1, 3, 0,10, 0.00,60.00,Thursday
18,13943697.920235448
54,12977169.904799996
481,0.0
2,3, 1, 3, 0,11, 0.00,60.00,Thursday
18,13943697.920235448
54,12977169.904799996
481,0.0
2,3, 1, 3, 0,12, 0.00,60.00,Thursday
18,13943697.920235448
54,12977169.904799996
481,0.0
2,3, 1, 3, 0,13, 0.00,60.00,Thursday
18,13943697.920235448
54,12977169.904799996
481,0.0
2,3, 1, 3, 0,14, 0.00,60.00,Thursday
18,13943697.920235448
54,12977169.904799996
481,0.0
2,3, 1, 3, 0,15, 0.00,60.00,Thursday
18,13943697.920235448
54,12977169.904799996
481,0.0
2,3, 1, 3, 0,16, 0.00,60.00,Thursday
18,13943697.920235448
54,12977169.904799996
481,0.0
2,3, 1, 3, 0,17, 0.00,60.00,Thursday
18,13943697.920235448
54,12977169.904799996
481,0.0
2,3, 1, 3, 0,18, 0.00,60.00,Thursday
18,13943697.920235448
54,12977169.904799996
481,0.0
2,3, 1, 3, 0,19, 0.00,60.00,Thursday
18,13943697.920235448
54,12977169.904799996
481,0.0
2,3, 1, 3, 0,20, 0.00,60.00,Thursday
18,966528.0154354514
54,0.0
481,0.0
2,3, 1, 3, 0,21, 0.00,60.00,Thursday
18,966528.0154354514
54,0.0
481,0.0
2,3, 1, 3, 0,22, 0.00,60.00,Thursday
18,966528.0154354514
54,0.0
481,0.0
2,3, 1, 3, 0,23, 0.00,60.00,Thursday
18,966528.0154354514
54,0.0
481,0.0
2,3, 1, 3, 0,24, 0.00,60.00,Thursday
18,966528.0154354514
54,0.0
481,0.0
2,4, 1, 4, 0, 1, 0.00,60.00,Friday
18,966528.0154354514
54,0.0
481,0.0
2,4, 1, 4, 0, 2, 0.00,60.00,Friday
18,1047976.8679439217
54,0.0
481,0.0
2,4, 1, 4, 0, 3, 0.00,60.00,Friday
18,2018596.7082822803
54,0.0
481,0.0
2,4, 1, 4, 0, 4, 0.00,60.00,Friday
18,2839719.0879270385
54,0.0
481,0.0
2,4, 1, 4, 0, 5, 0.00,60.00,Friday
18,3509843.7571896987
54,0.0
481,0.0
2,4, 1, 4, 0, 6, 0.00,60.00,Friday
18,4125609.2886072068
54,0.0
481,0.0
2,4, 1, 4, 0, 7, 0.00,60.00,Friday
18,4691484.033987254
54,0.0
481,0.0
2,4, 1, 4, 0, 8, 0.00,60.00,Friday
18,15768862.305511233
54,12977169.904799996
481,0.0
2,4, 1, 4, 0, 9, 0.00,60.00,Friday
18,14573707.563217048
54,12977169.904799996
481,0.0
2,4, 1, 4, 0,10, 0.00,60.00,Friday
18,13943697.920235448
54,12977169.904799996
481,0.0
2,4, 1, 4, 0,11, 0.00,60.00,Friday
18,13943697.920235448
54,12977169.904799996
481,0.0
2,4, 1, 4, 0,12, 0.00,60.00,Friday
18,13943697.920235448
54,12977169.904799996
481,0.0
2,4, 1, 4, 0,13, 0.00,60.00,Friday
18,13943697.920235448
54,12977169.904799996
481,0.0
2,4, 1, 4, 0,14, 0.00,60.00,Friday
18,13943697.920235448
54,12977169.904799996
481,0.0
2,4, 1, 4, 0,15, 0.00,60.00,Friday
18,13943697.920235448
54,12977169.904799996
481,0.0
2,4, 1, 4, 0,16, 0.00,60.00,Friday
18,13943697.920235448
54,12977169.904799996
481,0.0
2,4, 1, 4, 0,17, 0.00,60.00,Friday
18,13943697.920235448
54,12977169.904799996
481,0.0
2,4, 1, 4, 0,18, 0.00,60.00,Friday
18,13943697.920235448
54,12977169.904799996
481,0.0
2,4, 1, 4, 0,19, 0.00,60.00,Friday
18,13943697.920235448
54,12977169.904799996
481,0.0
2,4, 1, 4, 0,20, 0.00,60.00,Friday
18,966528.0154354514
54,0.0
481,0.0
2,4, 1, 4, 0,21, 0.00,60.00,Friday
18,966528.0154354514
54,0.0
481,0.0
2,4, 1, 4, 0,22, 0.00,60.00,Friday
18,966528.0154354514
54,0.0
481,0.0
2,4, 1, 4, 0,23, 0.00,60.00,Friday
18,966528.0154354514
54,0.0
481,0.0
2,4, 1, 4, 0,24, 0.00,60.00,Friday
18,966528.0154354514
54,0.0
481,0.0
2,5, 1, 5, 0, 1, 0.00,60.00,Saturday
18,966528.0154354514
54,0.0
481,0.0
2,5, 1, 5, 0, 2, 0.00,60.00,Saturday
18,966528.0154354514
54,0.0
481,0.0
2,5, 1, 5, 0, 3, 0.00,60.00,Saturday
18,966528.0154354514
54,0.0
481,0.0
2,5, 1, 5, 0, 4, 0.00,60.00,Saturday
18,966528.0154354514
54,0.0
481,0.0
2,5, 1, 5, 0, 5, 0.00,60.00,Saturday
18,966528.0154354514
54,0.0
481,0.0
2,5, 1, 5, 0, 6, 0.00,60.00,Saturday
18,1048012.7635565893
54,0.0
481,0.0
2,5, 1, 5, 0, 7, 0.00,60.00,Saturday
18,1811513.6351593992
54,0.0
481,0.0
2,5, 1, 5, 0, 8, 0.00,60.00,Saturday
18,2423571.336037941
54,0.0
481,0.0
2,5, 1, 5, 0, 9, 0.00,60.00,Saturday
18,2699537.660211933
54,0.0
481,0.0
2,5, 1, 5, 0,10, 0.00,60.00,Saturday
18,1794371.7237334266
54,0.0
481,0.0
2,5, 1, 5, 0,11, 0.00,60.00,Saturday
18,966528.0154354514
54,0.0
481,0.0
2,5, 1, 5, 0,12, 0.00,60.00,Saturday
18,966528.0154354514
54,0.0
481,0.0
2,5, 1, 5, 0,13, 0.00,60.00,Saturday
18,966528.0154354514
54,0.0
481,0.0
2,5, 1, 5, 0,14, 0.00,60.00,Saturday
18,966528.0154354514
54,0.0
481,0.0
2,5, 1, 5, 0,15, 0.00,60.00,Saturday
18,966528.0154354514
54,0.0
481,0.0
2,5, 1, 5, 0,16, 0.00,60.00,Saturday
18,966528.0154354514
54,0.0
481,0.0
2,5, 1, 5, 0,17, 0.00,60.00,Saturday
18,966528.0154354514
54,0.0
481,0.0
2,5, 1, 5, 0,18, 0.00,60.00,Saturday
18,966528.0154354514
54,0.0
481,0.0
2,5, 1, 5, 0,19, 0.00,60.00,Saturday
18,966528.0154354514
54,0.0
481,0.0
2,5, 1, 5, 0,20, 0.00,60.00,Saturday
18,966528.0154354514
54,0.0
481,0.0
2,5, 1, 5, 0,21, 0.00,60.00,Saturday
18,966528.0154354514
54,0.0
481,0.0
2,5, 1, 5, 0,22, 0.00,60.00,Saturday
18,966528.0154354514
54,0.0
481,0.0
2,5, 1, 5, 0,23, 0.00,60.00,Saturday
18,966528.0154354514
54,0.0
481,0.0
2,5, 1, 5, 0,24, 0.00,60.00,Saturday
18,966528.0154354514
54,0.0
481,0.0
2,6, 1, 6, 0, 1, 0.00,60.00,Sunday
18,966528.0154354514
54,0.0
481,0.0
2,6, 1, 6, 0, 2, 0.00,60.00,Sunday
18,966528.0154354514
54,0.0
481,0.0
2,6, 1, 6, 0, 3, 0.00,60.00,Sunday
18,966528.0154354514
54,0.0
481,0.0
2,6, 1, 6, 0, 4, 0.00,60.00,Sunday
18,966528.0154354514
54,0.0
481,0.0
2,6, 1, 6, 0, 5, 0.00,60.00,Sunday
18,966528.0154354514
54,0.0
481,0.0
2,6, 1, 6, 0, 6, 0.00,60.00,Sunday
18,966528.0154354514
54,0.0
481,0.0
2,6, 1, 6, 0, 7, 0.00,60.00,Sunday
18,966528.0154354514
54,0.0
481,0.0
2,6, 1, 6, 0, 8, 0.00,60.00,Sunday
18,1106170.3182867505
54,0.0
481,0.0
2,6, 1, 6, 0, 9, 0.00,60.00,Sunday
18,1437079.1821474604
54,0.0
481,0.0
2,6, 1, 6, 0,10, 0.00,60.00,Sunday
18,966528.0154354514
54,0.0
481,0.0
2,6, 1, 6, 0,11, 0.00,60.00,Sunday
18,966528.0154354514
54,0.0
481,0.0
2,6, 1, 6, 0,12, 0.00,60.00,Sunday
18,966528.0154354514
54,0.0
481,0.0
2,6, 1, 6, 0,13, 0.00,60.00,Sunday
18,966528.0154354514
54,0.0
481,0.0
2,6, 1, 6, 0,14, 0.00,60.00,Sunday
18,966528.0154354514
54,0.0
481,0.0
2,6, 1, 6, 0,15, 0.00,60.00,Sunday
18,966528.0154354514
54,0.0
481,0.0
2,6, 1, 6, 0,16, 0.00,60.00,Sunday
18,966528.0154354514
54,0.0
481,0.0
2,6, 1, 6, 0,17, 0.00,60.00,Sunday
18,966528.0154354514
54,0.0
481,0.0
2,6, 1, 6, 0,18, 0.00,60.00,Sunday
18,966528.0154354514
54,0.0
481,0.0
2,6, 1, 6, 0,19, 0.00,60.00,Sunday
18,966528.0154354514
54,0.0
481,0.0
2,6, 1, 6, 0,20, 0.00,60.00,Sunday
18,966528.0154354514
54,0.0
481,0.0
2,6, 1, 6, 0,21, 0.00,60.00,Sunday
18,966528.0154354514
54,0.0
481,0.0
2,6, 1, 6, 0,22, 0.00,60.00,Sunday
18,966528.0154354514
54,0.0
481,0.0
2,6, 1, 6, 0,23, 0.00,60.00,Sunday
18,966528.0154354514
54,0.0
481,0.0
2,6, 1, 6, 0,24, 0.00,60.00,Sunday
18,966528.0154354514
54,0.0
481,0.0
2,7, 1, 7, 0, 1, 0.00,60.00,Monday
18,966528.0154354514
54,0.0
481,0.0
2,7, 1, 7, 0, 2, 0.00,60.00,Monday
18,966528.0154354514
54,0.0
481,0.0
2,7, 1, 7, 0, 3, 0.00,60.00,Monday
18,966528.0154354514
54,0.0
481,0.0
2,7, 1, 7, 0, 4, 0.00,60.00,Monday
18,1023812.5753396242
54,0.0
481,0.0
2,7, 1, 7, 0, 5, 0.00,60.00,Monday
18,1648034.488501344
54,0.0
481,0.0
2,7, 1, 7, 0, 6, 0.00,60.00,Monday
18,2143744.2113564445
54,0.0
481,0.0
2,7, 1, 7, 0, 7, 0.00,60.00,Monday
18,2410265.790003562
54,0.0
481,0.0
2,7, 1, 7, 0, 8, 0.00,60.00,Monday
18,14312894.59030673
54,12977169.904799996
481,0.0
2,7, 1, 7, 0, 9, 0.00,60.00,Monday
18,14012734.610404883
54,12977169.904799996
481,0.0
2,7, 1, 7, 0,10, 0.00,60.00,Monday
18,13943697.920235448
54,12977169.904799996
481,0.0
2,7, 1, 7, 0,11, 0.00,60.00,Monday
18,13943697.920235448
54,12977169.904799996
481,0.0
2,7, 1, 7, 0,12, 0.00,60.00,Monday
18,13943697.920235448
54,12977169.904799996
481,0.0
2,7, 1, 7, 0,13, 0.00,60.00,Monday
18,13943697.920235448
54,12977169.904799996
481,0.0
2,7, 1, 7, 0,14, 0.00,60.00,Monday
18,13943697.920235448
54,12977169.904799996
481,0.0
2,7, 1, 7, 0,15, 0.00,60.00,Monday
18,13943697.920235448
54,12977169.904799996
481,0.0
2,7, 1, 7, 0,16, 0.00,60.00,Monday
18,13943697.920235448
54,12977169.904799996
481,0.0
2,7, 1, 7, 0,17, 0.00,60.00,Monday
18,13943697.920235448
54,12977169.904799996
481,0.0
2,7, 1, 7, 0,18, 0.00,60.00,Monday
18,13943697.920235448
54,12977169.904799996
481,0.0
2,7, 1, 7, 0,19, 0.00,60.00,Monday
18,13943697.920235448
54,12977169.904799996
481,0.0
2,7, 1, 7, 0,20, 0.00,60.00,Monday
18,966528.0154354514
54,0.0
481,0.0
2,7, 1, 7, 0,21, 0.00,60.00,Monday
18,966528.0154354514
54,0.0
481,0.0
2,7, 1, 7, 0,22, 0.00,60.00,Monday
18,966528.0154354514
54,0.0
481,0.0
2,7, 1, 7, 0,23, 0.00,60.00,Monday
18,966528.0154354514
54,0.0
481,0.0
2,7, 1, 7, 0,24, 0.00,60.00,Monday
18,966528.0154354514
54,0.0
481,0.0
2,8, 1, 8, 0, 1, 0.00,60.00,Tuesday
18,966528.0154354514
54,0.0
481,0.0
2,8, 1, 8, 0, 2, 0.00,60.00,Tuesday
18,966528.0154354514
54,0.0
481,0.0
2,8, 1, 8, 0, 3, 0.00,60.00,Tuesday
18,1621894.9257626625
54,0.0
481,0.0
2,8, 1, 8, 0, 4, 0.00,60.00,Tuesday
18,2459467.791173856
54,0.0
481,0.0
2,8, 1, 8, 0, 5, 0.00,60.00,Tuesday
18,3284620.0320596939
54,0.0
481,0.0
2,8, 1, 8, 0, 6, 0.00,60.00,Tuesday
18,4247446.252903135
54,0.0
481,0.0
2,8, 1, 8, 0, 7, 0.00,60.00,Tuesday
18,5195741.830216313
54,0.0
481,0.0
2,8, 1, 8, 0, 8, 0.00,60.00,Tuesday
18,16609924.630632898
54,12977169.904799996
481,0.0
2,8, 1, 8, 0, 9, 0.00,60.00,Tuesday
18,15615601.914685522
54,12977169.904799996
481,0.0
2,8, 1, 8, 0,10, 0.00,60.00,Tuesday
18,14054746.801476483
54,12977169.904799996
481,0.0
2,8, 1, 8, 0,11, 0.00,60.00,Tuesday
18,13943697.920235448
54,12977169.904799996
481,0.0
2,8, 1, 8, 0,12, 0.00,60.00,Tuesday
18,13943697.920235448
54,12977169.904799996
481,0.0
2,8, 1, 8, 0,13, 0.00,60.00,Tuesday
18,13943697.920235448
54,12977169.904799996
481,0.0
2,8, 1, 8, 0,14, 0.00,60.00,Tuesday
18,13943697.920235448
54,12977169.904799996
481,0.0
2,8, 1, 8, 0,15, 0.00,60.00,Tuesday
18,13943697.920235448
54,12977169.904799996
481,0.0
2,8, 1, 8, 0,16, 0.00,60.00,Tuesday
18,13943697.920235448
54,12977169.904799996
481,0.0
2,8, 1, 8, 0,17, 0.00,60.00,Tuesday
18,13943697.920235448
54,12977169.904799996
481,0.0
2,8, 1, 8, 0,18, 0.00,60.00,Tuesday
18,13943697.920235448
54,12977169.904799996
481,0.0
2,8, 1, 8, 0,19, 0.00,60.00,Tuesday
18,13943697.920235448
54,12977169.904799996
481,0.0
2,8, 1, 8, 0,20, 0.00,60.00,Tuesday
18,966528.0154354514
54,0.0
481,0.0
2,8, 1, 8, 0,21, 0.00,60.00,Tuesday
18,966528.0154354514
54,0.0
481,0.0
2,8, 1, 8, 0,22, 0.00,60.00,Tuesday
18,966528.0154354514
54,0.0
481,0.0
2,8, 1, 8, 0,23, 0.00,60.00,Tuesday
18,966528.0154354514
54,0.0
481,0.0
2,8, 1, 8, 0,24, 0.00,60.00,Tuesday
18,1916848.3891296513
54,0.0
481,0.0
2,9, 1, 9, 0, 1, 0.00,60.00,Wednesday
18,3882254.427236554
54,0.0
481,0.0
2,9, 1, 9, 0, 2, 0.00,60.00,Wednesday
18,4834219.94803747
54,0.0
481,0.0
2,9, 1, 9, 0, 3, 0.00,60.00,Wednesday
18,5570710.070359457
54,0.0
481,0.0
2,9, 1, 9, 0, 4, 0.00,60.00,Wednesday
18,6349535.885678536
54,0.0
481,0.0
2,9, 1, 9, 0, 5, 0.00,60.00,Wednesday
18,6927814.215506409
54,0.0
481,0.0
2,9, 1, 9, 0, 6, 0.00,60.00,Wednesday
18,7339452.803567844
54,0.0
481,0.0
2,9, 1, 9, 0, 7, 0.00,60.00,Wednesday
18,7655658.677644539
54,0.0
481,0.0
2,9, 1, 9, 0, 8, 0.00,60.00,Wednesday
18,18999148.738465869
54,12977169.904799996
481,0.0
2,9, 1, 9, 0, 9, 0.00,60.00,Wednesday
18,18222067.296938287
54,12977169.904799996
481,0.0
2,9, 1, 9, 0,10, 0.00,60.00,Wednesday
18,16654331.939460047
54,12977169.904799996
481,0.0
2,9, 1, 9, 0,11, 0.00,60.00,Wednesday
18,14783617.986282655
54,12977169.904799996
481,0.0
2,9, 1, 9, 0,12, 0.00,60.00,Wednesday
18,13943697.920235448
54,12977169.904799996
481,0.0
2,9, 1, 9, 0,13, 0.00,60.00,Wednesday
18,13943697.920235448
54,12977169.904799996
481,0.0
2,9, 1, 9, 0,14, 0.00,60.00,Wednesday
18,13943697.920235448
54,12977169.904799996
481,0.0
2,9, 1, 9, 0,15, 0.00,60.00,Wednesday
18,13943697.920235448
54,12977169.904799996
481,0.0
2,9, 1, 9, 0,16, 0.00,60.00,Wednesday
18,13943697.920235448
54,12977169.904799996
481,0.0
2,9, 1, 9, 0,17, 0.00,60.00,Wednesday
18,13943697.920235448
54,12977169.904799996
481,0.0
2,9, 1, 9, 0,18, 0.00,60.00,Wednesday
18,13943697.920235448
54,12977169.904799996
481,0.0
2,9, 1, 9, 0,19, 0.00,60.00,Wednesday
18,13943697.920235448
54,12977169.904799996
481,0.0
2,9, 1, 9, 0,20, 0.00,60.00,Wednesday
18,966528.0154354514
54,0.0
481,0.0
2,9, 1, 9, 0,21, 0.00,60.00,Wednesday
18,966528.0154354514
54,0.0
481,0.0
2,9, 1, 9, 0,22, 0.00,60.00,Wednesday
18,966528.0154354514
54,0.0
481,0.0
2,9, 1, 9, 0,23, 0.00,60.00,Wednesday
18,966528.0154354514
54,0.0
481,0.0
2,9, 1, 9, 0,24, 0.00,60.00,Wednesday
18,966528.0154354514
54,0.0
481,0.0
2,10, 1,10, 0, 1, 0.00,60.00,Thursday
18,966528.0154354514
54,0.0
481,0.0
2,10, 1,10, 0, 2, 0.00,60.00,Thursday
18,1449159.2943299388
54,0.0
481,0.0
2,10, 1,10, 0, 3, 0.00,60.00,Thursday
18,2923473.6773755496
54,0.0
481,0.0
2,10, 1,10, 0, 4, 0.00,60.00,Thursday
18,2645676.020294194
54,0.0
481,0.0
2,10, 1,10, 0, 5, 0.00,60.00,Thursday
18,3077850.772367132
54,0.0
481,0.0
2,10, 1,10, 0, 6, 0.00,60.00,Thursday
18,4071253.579338331
54,0.0
481,0.0
2,10, 1,10, 0, 7, 0.00,60.00,Thursday
18,5038294.456689961
54,0.0
481,0.0
2,10, 1,10, 0, 8, 0.00,60.00,Thursday
18,16491909.377391175
54,12977169.904799996
481,0.0
2,10, 1,10, 0, 9, 0.00,60.00,Thursday
18,15521287.877903
54,12977169.904799996
481,0.0
2,10, 1,10, 0,10, 0.00,60.00,Thursday
18,14258737.277418433
54,12977169.904799996
481,0.0
2,10, 1,10, 0,11, 0.00,60.00,Thursday
18,13943697.920235448
54,12977169.904799996
481,0.0
2,10, 1,10, 0,12, 0.00,60.00,Thursday
18,13943697.920235448
54,12977169.904799996
481,0.0
2,10, 1,10, 0,13, 0.00,60.00,Thursday
18,13943697.920235448
54,12977169.904799996
481,0.0
2,10, 1,10, 0,14, 0.00,60.00,Thursday
18,13943697.920235448
54,12977169.904799996
481,0.0
2,10, 1,10, 0,15, 0.00,60.00,Thursday
18,13943697.920235448
54,12977169.904799996
481,0.0
2,10, 1,10, 0,16, 0.00,60.00,Thursday
18,13943697.920235448
54,12977169.904799996
481,0.0
2,10, 1,10, 0,17, 0.00,60.00,Thursday
18,13943697.920235448
54,12977169.904799996
481,0.0
2,10, 1,10, 0,18, 0.00,60.00,Thursday
18,13943697.920235448
54,12977169.904799996
481,0.0
2,10, 1,10, 0,19, 0.00,60.00,Thursday
18,13943697.920235448
54,12977169.904799996
481,0.0
2,10, 1,10, 0,20, 0.00,60.00,Thursday
18,966528.0154354514
54,0.0
481,0.0
2,10, 1,10, 0,21, 0.00,60.00,Thursday
18,966528.0154354514
54,0.0
481,0.0
2,10, 1,10, 0,22, 0.00,60.00,Thursday
18,966528.0154354514
54,0.0
481,0.0
2,10, 1,10, 0,23, 0.00,60.00,Thursday
18,966528.0154354514
54,0.0
481,0.0
2,10, 1,10, 0,24, 0.00,60.00,Thursday
18,966528.0154354514
54,0.0
481,0.0
2,11, 1,11, 0, 1, 0.00,60.00,Friday
18,966528.0154354514
54,0.0
481,0.0
2,11, 1,11, 0, 2, 0.00,60.00,Friday
18,1042270.8237658783
54,0.0
481,0.0
2,11, 1,11, 0, 3, 0.00,60.00,Friday
18,2735574.8287868367
54,0.0
481,0.0
2,11, 1,11, 0, 4, 0.00,60.00,Friday
18,4260132.782407749
54,0.0
481,0.0
2,11, 1,11, 0, 5, 0.00,60.00,Friday
18,5344936.81165881
54,0.0
481,0.0
2,11, 1,11, 0, 6, 0.00,60.00,Friday
18,6181496.016712058
54,0.0
481,0.0
2,11, 1,11, 0, 7, 0.00,60.00,Friday
18,6551552.983920709
54,0.0
481,0.0
2,11, 1,11, 0, 8, 0.00,60.00,Friday
18,17689084.391780467
54,12977169.904799996
481,0.0
2,11, 1,11, 0, 9, 0.00,60.00,Friday
18,16708399.468593847
54,12977169.904799996
481,0.0
2,11, 1,11, 0,10, 0.00,60.00,Friday
18,14962439.814348672
54,12977169.904799996
481,0.0
2,11, 1,11, 0,11, 0.00,60.00,Friday
18,13943697.920235448
54,12977169.904799996
481,0.0
2,11, 1,11, 0,12, 0.00,60.00,Friday
18,13943697.920235448
54,12977169.904799996
481,0.0
2,11, 1,11, 0,13, 0.00,60.00,Friday
18,13943697.920235448
54,12977169.904799996
481,0.0
2,11, 1,11, 0,14, 0.00,60.00,Friday
18,13943697.920235448
54,12977169.904799996
481,0.0
2,11, 1,11, 0,15, 0.00,60.00,Friday
18,13943697.920235448
54,12977169.904799996
481,0.0
2,11, 1,11, 0,16, 0.00,60.00,Friday
18,13943697.920235448
54,12977169.904799996
481,0.0
2,11, 1,11, 0,17, 0.00,60.00,Friday
18,13943697.920235448
54,12977169.904799996
481,0.0
2,11, 1,11, 0,18, 0.00,60.00,Friday
18,13943697.920235448
54,12977169.904799996
481,0.0
2,11, 1,11, 0,19, 0.00,60.00,Friday
18,13943697.920235448
54,12977169.904799996
481,0.0
2,11, 1,11, 0,20, 0.00,60.00,Friday
18,966528.0154354514
54,0.0
481,0.0
2,11, 1,11, 0,21, 0.00,60.00,Friday
18,966528.0154354514
54,0.0
481,0.0
2,11, 1,11, 0,22, 0.00,60.00,Friday
18,966528.0154354514
54,0.0
481,0.0
2,11, 1,11, 0,23, 0.00,60.00,Friday
18,966528.0154354514
54,0.0
481,0.0
2,11, 1,11, 0,24, 0.00,60.00,Friday
18,966528.0154354514
54,0.0
481,0.0
2,12, 1,12, 0, 1, 0.00,60.00,Saturday
18,966528.0154354514
54,0.0
481,0.0
2,12, 1,12, 0, 2, 0.00,60.00,Saturday
18,966528.0154354514
54,0.0
481,0.0
2,12, 1,12, 0, 3, 0.00,60.00,Saturday
18,1971654.9593614189
54,0.0
481,0.0
2,12, 1,12, 0, 4, 0.00,60.00,Saturday
18,3139975.0105163219
54,0.0
481,0.0
2,12, 1,12, 0, 5, 0.00,60.00,Saturday
18,4111323.643843984
54,0.0
481,0.0
2,12, 1,12, 0, 6, 0.00,60.00,Saturday
18,4989444.0075555029
54,0.0
481,0.0
2,12, 1,12, 0, 7, 0.00,60.00,Saturday
18,5813165.222968032
54,0.0
481,0.0
2,12, 1,12, 0, 8, 0.00,60.00,Saturday
18,6563303.478265912
54,0.0
481,0.0
2,12, 1,12, 0, 9, 0.00,60.00,Saturday
18,6937370.687617616
54,0.0
481,0.0
2,12, 1,12, 0,10, 0.00,60.00,Saturday
18,5456656.775237886
54,0.0
481,0.0
2,12, 1,12, 0,11, 0.00,60.00,Saturday
18,3418040.1159263525
54,0.0
481,0.0
2,12, 1,12, 0,12, 0.00,60.00,Saturday
18,1372206.0937846569
54,0.0
481,0.0
2,12, 1,12, 0,13, 0.00,60.00,Saturday
18,966528.0154354514
54,0.0
481,0.0
2,12, 1,12, 0,14, 0.00,60.00,Saturday
18,966528.0154354514
54,0.0
481,0.0
2,12, 1,12, 0,15, 0.00,60.00,Saturday
18,966528.0154354514
54,0.0
481,0.0
2,12, 1,12, 0,16, 0.00,60.00,Saturday
18,966528.0154354514
54,0.0
481,0.0
2,12, 1,12, 0,17, 0.00,60.00,Saturday
18,966528.0154354514
54,0.0
481,0.0
2,12, 1,12, 0,18, 0.00,60.00,Saturday
18,966528.0154354514
54,0.0
481,0.0
2,12, 1,12, 0,19, 0.00,60.00,Saturday
18,966528.0154354514
54,0.0
481,0.0
2,12, 1,12, 0,20, 0.00,60.00,Saturday
18,966528.0154354514
54,0.0
481,0.0
2,12, 1,12, 0,21, 0.00,60.00,Saturday
18,966528.0154354514
54,0.0
481,0.0
2,12, 1,12, 0,22, 0.00,60.00,Saturday
18,966528.0154354514
54,0.0
481,0.0
2,12, 1,12, 0,23, 0.00,60.00,Saturday
18,966528.0154354514
54,0.0
481,0.0
2,12, 1,12, 0,24, 0.00,60.00,Saturday
18,966528.0154354514
54,0.0
481,0.0
2,13, 1,13, 0, 1, 0.00,60.00,Sunday
18,966528.0154354514
54,0.0
481,0.0
2,13, 1,13, 0, 2, 0.00,60.00,Sunday
18,966528.0154354514
54,0.0
481,0.0
2,13, 1,13, 0, 3, 0.00,60.00,Sunday
18,966528.0154354514
54,0.0
481,0.0
2,13, 1,13, 0, 4, 0.00,60.00,Sunday
18,966528.0154354514
54,0.0
481,0.0
2,13, 1,13, 0, 5, 0.00,60.00,Sunday
18,966528.0154354514
54,0.0
481,0.0
2,13, 1,13, 0, 6, 0.00,60.00,Sunday
18,1478131.2302994137
54,0.0
481,0.0
2,13, 1,13, 0, 7, 0.00,60.00,Sunday
18,2911844.3082576098
54,0.0
481,0.0
2,13, 1,13, 0, 8, 0.00,60.00,Sunday
18,3898599.2310182016
54,0.0
481,0.0
2,13, 1,13, 0, 9, 0.00,60.00,Sunday
18,4536954.135292967
54,0.0
481,0.0
2,13, 1,13, 0,10, 0.00,60.00,Sunday
18,4163825.0619874487
54,0.0
481,0.0
2,13, 1,13, 0,11, 0.00,60.00,Sunday
18,3423990.9744094947
54,0.0
481,0.0
2,13, 1,13, 0,12, 0.00,60.00,Sunday
18,2396347.8358643397
54,0.0
481,0.0
2,13, 1,13, 0,13, 0.00,60.00,Sunday
18,1077789.2106032365
54,0.0
481,0.0
2,13, 1,13, 0,14, 0.00,60.00,Sunday
18,966528.0154354514
54,0.0
481,0.0
2,13, 1,13, 0,15, 0.00,60.00,Sunday
18,966528.0154354514
54,0.0
481,0.0
2,13, 1,13, 0,16, 0.00,60.00,Sunday
18,966528.0154354514
54,0.0
481,0.0
2,13, 1,13, 0,17, 0.00,60.00,Sunday
18,966528.0154354514
54,0.0
481,0.0
2,13, 1,13, 0,18, 0.00,60.00,Sunday
18,966528.0154354514
54,0.0
481,0.0
2,13, 1,13, 0,19, 0.00,60.00,Sunday
18,966528.0154354514
54,0.0
481,0.0
2,13, 1,13, 0,20, 0.00,60.00,Sunday
18,966528.0154354514
54,0.0
481,0.0
2,13, 1,13, 0,21, 0.00,60.00,Sunday
18,966528.0154354514
54,0.0
481,0.0
2,13, 1,13, 0,22, 0.00,60.00,Sunday
18,966528.0154354514
54,0.0
481,0.0
2,13, 1,13, 0,23, 0.00,60.00,Sunday
18,2151791.195723963
54,0.0
481,0.0
2,13, 1,13, 0,24, 0.00,60.00,Sunday
18,3753972.870265417
54,0.0
481,0.0
2,14, 1,14, 0, 1, 0.00,60.00,Monday
18,5074988.276127984
54,0.0
481,0.0
2,14, 1,14, 0, 2, 0.00,60.00,Monday
18,6018256.25346331
54,0.0
481,0.0
2,14, 1,14, 0, 3, 0.00,60.00,Monday
18,6753918.55773198
54,0.0
481,0.0
2,14, 1,14, 0, 4, 0.00,60.00,Monday
18,7423043.19992385
54,0.0
481,0.0
2,14, 1,14, 0, 5, 0.00,60.00,Monday
18,8030364.937599687
54,0.0
481,0.0
2,14, 1,14, 0, 6, 0.00,60.00,Monday
18,8590042.793473183
54,0.0
481,0.0
2,14, 1,14, 0, 7, 0.00,60.00,Monday
18,9066827.424560627
54,0.0
481,0.0
2,14, 1,14, 0, 8, 0.00,60.00,Monday
18,20182366.466777218
54,12977169.904799996
481,0.0
2,14, 1,14, 0, 9, 0.00,60.00,Monday
18,19099565.396750496
54,12977169.904799996
481,0.0
2,14, 1,14, 0,10, 0.00,60.00,Monday
18,17326227.79694545
54,12977169.904799996
481,0.0
2,14, 1,14, 0,11, 0.00,60.00,Monday
18,15522343.454296034
54,12977169.904799996
481,0.0
2,14, 1,14, 0,12, 0.00,60.00,Monday
18,14102908.553340236
54,12977169.904799996
481,0.0
2,14, 1,14, 0,13, 0.00,60.00,Monday
18,13943697.920235448
54,12977169.904799996
481,0.0
2,14, 1,14, 0,14, 0.00,60.00,Monday
18,13943697.920235448
54,12977169.904799996
481,0.0
2,14, 1,14, 0,15, 0.00,60.00,Monday
18,13943697.920235448
54,12977169.904799996
481,0.0
2,14, 1,14, 0,16, 0.00,60.00,Monday
18,13943697.920235448
54,12977169.904799996
481,0.0
2,14, 1,14, 0,17, 0.00,60.00,Monday
18,13943697.920235448
54,12977169.904799996
481,0.0
2,14, 1,14, 0,18, 0.00,60.00,Monday
18,13943697.920235448
54,12977169.904799996
481,0.0
2,14, 1,14, 0,19, 0.00,60.00,Monday
18,13943697.920235448
54,12977169.904799996
481,0.0
2,14, 1,14, 0,20, 0.00,60.00,Monday
18,966528.0154354514
54,0.0
481,0.0
2,14, 1,14, 0,21, 0.00,60.00,Monday
18,966528.0154354514
54,0.0
481,0.0
2,14, 1,14, 0,22, 0.00,60.00,Monday
18,966528.0154354514
54,0.0
481,0.0
2,14, 1,14, 0,23, 0.00,60.00,Monday
18,966528.0154354514
54,0.0
481,0.0
2,14, 1,14, 0,24, 0.00,60.00,Monday
18,966528.0154354514
54,0.0
481,0.0
2,15, 1,15, 0, 1, 0.00,60.00,Tuesday
18,1704212.0164061166
54,0.0
481,0.0
2,15, 1,15, 0, 2, 0.00,60.00,Tuesday
18,3414105.3565909627
54,0.0
481,0.0
2,15, 1,15, 0, 3, 0.00,60.00,Tuesday
18,4873237.181656399
54,0.0
481,0.0
2,15, 1,15, 0, 4, 0.00,60.00,Tuesday
18,6081224.175228058
54,0.0
481,0.0
2,15, 1,15, 0, 5, 0.00,60.00,Tuesday
18,6657716.982529819
54,0.0
481,0.0
2,15, 1,15, 0, 6, 0.00,60.00,Tuesday
18,6796810.548111873
54,0.0
481,0.0
2,15, 1,15, 0, 7, 0.00,60.00,Tuesday
18,6818817.278192409
54,0.0
481,0.0
2,15, 1,15, 0, 8, 0.00,60.00,Tuesday
18,18266775.359499504
54,12977169.904799996
481,0.0
2,15, 1,15, 0, 9, 0.00,60.00,Tuesday
18,17852629.36665283
54,12977169.904799996
481,0.0
2,15, 1,15, 0,10, 0.00,60.00,Tuesday
18,16681138.44222061
54,12977169.904799996
481,0.0
2,15, 1,15, 0,11, 0.00,60.00,Tuesday
18,14793031.03539192
54,12977169.904799996
481,0.0
2,15, 1,15, 0,12, 0.00,60.00,Tuesday
18,13943697.920235448
54,12977169.904799996
481,0.0
2,15, 1,15, 0,13, 0.00,60.00,Tuesday
18,13943697.920235448
54,12977169.904799996
481,0.0
2,15, 1,15, 0,14, 0.00,60.00,Tuesday
18,13943697.920235448
54,12977169.904799996
481,0.0
2,15, 1,15, 0,15, 0.00,60.00,Tuesday
18,13943697.920235448
54,12977169.904799996
481,0.0
2,15, 1,15, 0,16, 0.00,60.00,Tuesday
18,13943697.920235448
54,12977169.904799996
481,0.0
2,15, 1,15, 0,17, 0.00,60.00,Tuesday
18,13943697.920235448
54,12977169.904799996
481,0.0
2,15, 1,15, 0,18, 0.00,60.00,Tuesday
18,13943697.920235448
54,12977169.904799996
481,0.0
2,15, 1,15, 0,19, 0.00,60.00,Tuesday
18,13943697.920235448
54,12977169.904799996
481,0.0
2,15, 1,15, 0,20, 0.00,60.00,Tuesday
18,966528.0154354514
54,0.0
481,0.0
2,15, 1,15, 0,21, 0.00,60.00,Tuesday
18,966528.0154354514
54,0.0
481,0.0
2,15, 1,15, 0,22, 0.00,60.00,Tuesday
18,966528.0154354514
54,0.0
481,0.0
2,15, 1,15, 0,23, 0.00,60.00,Tuesday
18,966528.0154354514
54,0.0
481,0.0
2,15, 1,15, 0,24, 0.00,60.00,Tuesday
18,966528.0154354514
54,0.0
481,0.0
2,16, 1,16, 0, 1, 0.00,60.00,Wednesday
18,1738474.164409523
54,0.0
481,0.0
2,16, 1,16, 0, 2, 0.00,60.00,Wednesday
18,3460697.84854521
54,0.0
481,0.0
2,16, 1,16, 0, 3, 0.00,60.00,Wednesday
18,4693968.50175293
54,0.0
481,0.0
2,16, 1,16, 0, 4, 0.00,60.00,Wednesday
18,6005886.771161193
54,0.0
481,0.0
2,16, 1,16, 0, 5, 0.00,60.00,Wednesday
18,6887368.505940317
54,0.0
481,0.0
2,16, 1,16, 0, 6, 0.00,60.00,Wednesday
18,7282607.651362868
54,0.0
481,0.0
2,16, 1,16, 0, 7, 0.00,60.00,Wednesday
18,7578194.539618989
54,0.0
481,0.0
2,16, 1,16, 0, 8, 0.00,60.00,Wednesday
18,19810592.19209377
54,12977169.904799996
481,0.0
2,16, 1,16, 0, 9, 0.00,60.00,Wednesday
18,19505666.743538985
54,12977169.904799996
481,0.0
2,16, 1,16, 0,10, 0.00,60.00,Wednesday
18,17609926.987693408
54,12977169.904799996
481,0.0
2,16, 1,16, 0,11, 0.00,60.00,Wednesday
18,15444226.409047515
54,12977169.904799996
481,0.0
2,16, 1,16, 0,12, 0.00,60.00,Wednesday