Program Version,EnergyPlus, Version 9.4.0-998c4b761e, YMD=2025.12.13 11:04
1,5,Environment Title[],Latitude[deg],Longitude[deg],Time Zone[],Elevation[m]
2,8,Day of Simulation[],Month[],Day of Month[],DST Indicator[1=yes 0=no],Hour[],StartMinute[],EndMinute[],DayType
3,5,Cumulative Day of Simulation[],Month[],Day of Month[],DST Indicator[1=yes 0=no],DayType  ! When Daily Meters Requested
4,2,Cumulative Days of Simulation[],Month[]  ! When Monthly Meters Requested
5,1,Cumulative Days of Simulation[] ! When Run Period Meters Requested
6,1,Calendar Year of Simulation[] ! When Annual Meters Requested
19,1,Electricity:Facility [J] !Hourly
55,1,InteriorLights:Electricity [J] !Hourly
499,1,Carbon Equivalent:Facility [kg] !Hourly
End of Data Dictionary
1,CICSE ALJARAFE CENTER (01-01:31-12),  37.42,  -5.90,   1.00,  31.00
2,1, 1, 1, 0, 1, 0.00,60.00,Tuesday
19,985533.4229541953
55,0.0
499,0.0
2,1, 1, 1, 0, 2, 0.00,60.00,Tuesday
19,985533.4229541953
55,0.0
499,0.0
2,1, 1, 1, 0, 3, 0.00,60.00,Tuesday
19,985533.4229541953
55,0.0
499,0.0
2,1, 1, 1, 0, 4, 0.00,60.00,Tuesday
19,985533.4229541953
55,0.0
499,0.0
2,1, 1, 1, 0, 5, 0.00,60.00,Tuesday
19,985533.4229541953
55,0.0
499,0.0
2,1, 1, 1, 0, 6, 0.00,60.00,Tuesday
19,985533.4229541953
55,0.0
499,0.0
2,1, 1, 1, 0, 7, 0.00,60.00,Tuesday
19,985533.4229541953
55,0.0
499,0.0
2,1, 1, 1, 0, 8, 0.00,60.00,Tuesday
19,13962703.327754192
55,12977169.904799996
499,0.0
2,1, 1, 1, 0, 9, 0.00,60.00,Tuesday
19,14328586.312363966
55,12977169.904799996
499,0.0
2,1, 1, 1, 0,10, 0.00,60.00,Tuesday
19,15118893.885551352
55,12977169.904799996
499,0.0
2,1, 1, 1, 0,11, 0.00,60.00,Tuesday
19,16238783.819893355
55,12977169.904799996
499,0.0
2,1, 1, 1, 0,12, 0.00,60.00,Tuesday
19,17364914.284124219
55,12977169.904799996
499,0.0
2,1, 1, 1, 0,13, 0.00,60.00,Tuesday
19,18274146.804002506
55,12977169.904799996
499,0.0
2,1, 1, 1, 0,14, 0.00,60.00,Tuesday
19,19379087.783651614
55,12977169.904799996
499,0.0
2,1, 1, 1, 0,15, 0.00,60.00,Tuesday
19,20504223.303030597
55,12977169.904799996
499,0.0
2,1, 1, 1, 0,16, 0.00,60.00,Tuesday
19,21494333.005564047
55,12977169.904799996
499,0.0
2,1, 1, 1, 0,17, 0.00,60.00,Tuesday
19,21126524.49593014
55,12977169.904799996
499,0.0
2,1, 1, 1, 0,18, 0.00,60.00,Tuesday
19,18904395.024692984
55,12977169.904799996
499,0.0
2,1, 1, 1, 0,19, 0.00,60.00,Tuesday
19,15971709.068659952
55,12977169.904799996
499,0.0
2,1, 1, 1, 0,20, 0.00,60.00,Tuesday
19,985533.4229541953
55,0.0
499,0.0
2,1, 1, 1, 0,21, 0.00,60.00,Tuesday
19,985533.4229541953
55,0.0
499,0.0
2,1, 1, 1, 0,22, 0.00,60.00,Tuesday
19,985533.4229541953
55,0.0
499,0.0
2,1, 1, 1, 0,23, 0.00,60.00,Tuesday
19,985533.4229541953
55,0.0
499,0.0
2,1, 1, 1, 0,24, 0.00,60.00,Tuesday
19,985533.4229541953
55,0.0
499,0.0
2,2, 1, 2, 0, 1, 0.00,60.00,Wednesday
19,985533.4229541953
55,0.0
499,0.0
2,2, 1, 2, 0, 2, 0.00,60.00,Wednesday
19,985533.4229541953
55,0.0
499,0.0
2,2, 1, 2, 0, 3, 0.00,60.00,Wednesday
19,985533.4229541953
55,0.0
499,0.0
2,2, 1, 2, 0, 4, 0.00,60.00,Wednesday
19,985533.4229541953
55,0.0
499,0.0
2,2, 1, 2, 0, 5, 0.00,60.00,Wednesday
19,985533.4229541953
55,0.0
499,0.0
2,2, 1, 2, 0, 6, 0.00,60.00,Wednesday
19,985533.4229541953
55,0.0
499,0.0
2,2, 1, 2, 0, 7, 0.00,60.00,Wednesday
19,1335655.2936677633
55,0.0
499,0.0
2,2, 1, 2, 0, 8, 0.00,60.00,Wednesday
19,13962703.327754192
55,12977169.904799996
499,0.0
2,2, 1, 2, 0, 9, 0.00,60.00,Wednesday
19,13962703.327754192
55,12977169.904799996
499,0.0
2,2, 1, 2, 0,10, 0.00,60.00,Wednesday
19,13962703.327754192
55,12977169.904799996
499,0.0
2,2, 1, 2, 0,11, 0.00,60.00,Wednesday
19,13962703.327754192
55,12977169.904799996
499,0.0
2,2, 1, 2, 0,12, 0.00,60.00,Wednesday
19,13962703.327754192
55,12977169.904799996
499,0.0
2,2, 1, 2, 0,13, 0.00,60.00,Wednesday
19,13962703.327754192
55,12977169.904799996
499,0.0
2,2, 1, 2, 0,14, 0.00,60.00,Wednesday
19,13962703.327754192
55,12977169.904799996
499,0.0
2,2, 1, 2, 0,15, 0.00,60.00,Wednesday
19,13962703.327754192
55,12977169.904799996
499,0.0
2,2, 1, 2, 0,16, 0.00,60.00,Wednesday
19,13962703.327754192
55,12977169.904799996
499,0.0
2,2, 1, 2, 0,17, 0.00,60.00,Wednesday
19,13962703.327754192
55,12977169.904799996
499,0.0
2,2, 1, 2, 0,18, 0.00,60.00,Wednesday
19,13962703.327754192
55,12977169.904799996
499,0.0
2,2, 1, 2, 0,19, 0.00,60.00,Wednesday
19,13962703.327754192
55,12977169.904799996
499,0.0
2,2, 1, 2, 0,20, 0.00,60.00,Wednesday
19,985533.4229541953
55,0.0
499,0.0
2,2, 1, 2, 0,21, 0.00,60.00,Wednesday
19,985533.4229541953
55,0.0
499,0.0
2,2, 1, 2, 0,22, 0.00,60.00,Wednesday
19,985533.4229541953
55,0.0
499,0.0
2,2, 1, 2, 0,23, 0.00,60.00,Wednesday
19,985533.4229541953
55,0.0
499,0.0
2,2, 1, 2, 0,24, 0.00,60.00,Wednesday
19,985533.4229541953
55,0.0
499,0.0
2,3, 1, 3, 0, 1, 0.00,60.00,Thursday
19,985533.4229541953
55,0.0
499,0.0
2,3, 1, 3, 0, 2, 0.00,60.00,Thursday
19,985533.4229541953
55,0.0
499,0.0
2,3, 1, 3, 0, 3, 0.00,60.00,Thursday
19,1640902.4572212513
55,0.0
499,0.0
2,3, 1, 3, 0, 4, 0.00,60.00,Thursday
19,2939747.1575205705
55,0.0
499,0.0
2,3, 1, 3, 0, 5, 0.00,60.00,Thursday
19,3661549.674479344
55,0.0
499,0.0
2,3, 1, 3, 0, 6, 0.00,60.00,Thursday
19,4083439.855553325
55,0.0
499,0.0
2,3, 1, 3, 0, 7, 0.00,60.00,Thursday
19,4276472.84378616
55,0.0
499,0.0
2,3, 1, 3, 0, 8, 0.00,60.00,Thursday
19,15293957.837556312
55,12977169.904799996
499,0.0
2,3, 1, 3, 0, 9, 0.00,60.00,Thursday
19,14474073.094882343
55,12977169.904799996
499,0.0
2,3, 1, 3, 0,10, 0.00,60.00,Thursday
19,13962703.327754192
55,12977169.904799996
499,0.0
2,3, 1, 3, 0,11, 0.00,60.00,Thursday
19,13962703.327754192
55,12977169.904799996
499,0.0
2,3, 1, 3, 0,12, 0.00,60.00,Thursday
19,13962703.327754192
55,12977169.904799996
499,0.0
2,3, 1, 3, 0,13, 0.00,60.00,Thursday
19,13962703.327754192
55,12977169.904799996
499,0.0
2,3, 1, 3, 0,14, 0.00,60.00,Thursday
19,13962703.327754192
55,12977169.904799996
499,0.0
2,3, 1, 3, 0,15, 0.00,60.00,Thursday
19,13962703.327754192
55,12977169.904799996
499,0.0
2,3, 1, 3, 0,16, 0.00,60.00,Thursday
19,13962703.327754192
55,12977169.904799996
499,0.0
2,3, 1, 3, 0,17, 0.00,60.00,Thursday
19,13962703.327754192
55,12977169.904799996
499,0.0
2,3, 1, 3, 0,18, 0.00,60.00,Thursday
19,13962703.327754192
55,12977169.904799996
499,0.0
2,3, 1, 3, 0,19, 0.00,60.00,Thursday
19,13962703.327754192
55,12977169.904799996
499,0.0
2,3, 1, 3, 0,20, 0.00,60.00,Thursday
19,985533.4229541953
55,0.0
499,0.0
2,3, 1, 3, 0,21, 0.00,60.00,Thursday
19,985533.4229541953
55,0.0
499,0.0
2,3, 1, 3, 0,22, 0.00,60.00,Thursday
19,985533.4229541953
55,0.0
499,0.0
2,3, 1, 3, 0,23, 0.00,60.00,Thursday
19,985533.4229541953
55,0.0
499,0.0
2,3, 1, 3, 0,24, 0.00,60.00,Thursday
19,985533.4229541953
55,0.0
499,0.0
2,4, 1, 4, 0, 1, 0.00,60.00,Friday
19,1694132.9538308373
55,0.0
499,0.0
2,4, 1, 4, 0, 2, 0.00,60.00,Friday
19,2793223.9896398636
55,0.0
499,0.0
2,4, 1, 4, 0, 3, 0.00,60.00,Friday
19,3512970.3785005866
55,0.0
499,0.0
2,4, 1, 4, 0, 4, 0.00,60.00,Friday
19,4141768.7056365527
55,0.0
499,0.0
2,4, 1, 4, 0, 5, 0.00,60.00,Friday
19,4700617.826950085
55,0.0
499,0.0
2,4, 1, 4, 0, 6, 0.00,60.00,Friday
19,5236357.024138194
55,0.0
499,0.0
2,4, 1, 4, 0, 7, 0.00,60.00,Friday
19,5740736.40278598
55,0.0
499,0.0
2,4, 1, 4, 0, 8, 0.00,60.00,Friday
19,16860355.409282663
55,12977169.904799996
499,0.0
2,4, 1, 4, 0, 9, 0.00,60.00,Friday
19,15590719.701649325
55,12977169.904799996
499,0.0
2,4, 1, 4, 0,10, 0.00,60.00,Friday
19,13996990.966623573
55,12977169.904799996
499,0.0
2,4, 1, 4, 0,11, 0.00,60.00,Friday
19,13962703.327754192
55,12977169.904799996
499,0.0
2,4, 1, 4, 0,12, 0.00,60.00,Friday
19,13962703.327754192
55,12977169.904799996
499,0.0
2,4, 1, 4, 0,13, 0.00,60.00,Friday
19,13962703.327754192
55,12977169.904799996
499,0.0
2,4, 1, 4, 0,14, 0.00,60.00,Friday
19,13962703.327754192
55,12977169.904799996
499,0.0
2,4, 1, 4, 0,15, 0.00,60.00,Friday
19,13962703.327754192
55,12977169.904799996
499,0.0
2,4, 1, 4, 0,16, 0.00,60.00,Friday
19,13962703.327754192
55,12977169.904799996
499,0.0
2,4, 1, 4, 0,17, 0.00,60.00,Friday
19,13962703.327754192
55,12977169.904799996
499,0.0
2,4, 1, 4, 0,18, 0.00,60.00,Friday
19,13962703.327754192
55,12977169.904799996
499,0.0
2,4, 1, 4, 0,19, 0.00,60.00,Friday
19,13962703.327754192
55,12977169.904799996
499,0.0
2,4, 1, 4, 0,20, 0.00,60.00,Friday
19,985533.4229541953
55,0.0
499,0.0
2,4, 1, 4, 0,21, 0.00,60.00,Friday
19,985533.4229541953
55,0.0
499,0.0
2,4, 1, 4, 0,22, 0.00,60.00,Friday
19,985533.4229541953
55,0.0
499,0.0
2,4, 1, 4, 0,23, 0.00,60.00,Friday
19,985533.4229541953
55,0.0
499,0.0
2,4, 1, 4, 0,24, 0.00,60.00,Friday
19,985533.4229541953
55,0.0
499,0.0
2,5, 1, 5, 0, 1, 0.00,60.00,Saturday
19,985533.4229541953
55,0.0
499,0.0
2,5, 1, 5, 0, 2, 0.00,60.00,Saturday
19,985533.4229541953
55,0.0
499,0.0
2,5, 1, 5, 0, 3, 0.00,60.00,Saturday
19,985533.4229541953
55,0.0
499,0.0
2,5, 1, 5, 0, 4, 0.00,60.00,Saturday
19,1040233.7100767486
55,0.0
499,0.0
2,5, 1, 5, 0, 5, 0.00,60.00,Saturday
19,1803496.6824988579
55,0.0
499,0.0
2,5, 1, 5, 0, 6, 0.00,60.00,Saturday
19,2487805.2111667098
55,0.0
499,0.0
2,5, 1, 5, 0, 7, 0.00,60.00,Saturday
19,3030081.2478709609
55,0.0
499,0.0
2,5, 1, 5, 0, 8, 0.00,60.00,Saturday
19,3511269.424353122
55,0.0
499,0.0
2,5, 1, 5, 0, 9, 0.00,60.00,Saturday
19,3712521.8571866436
55,0.0
499,0.0
2,5, 1, 5, 0,10, 0.00,60.00,Saturday
19,2778223.9379947066
55,0.0
499,0.0
2,5, 1, 5, 0,11, 0.00,60.00,Saturday
19,1346691.4351033809
55,0.0
499,0.0
2,5, 1, 5, 0,12, 0.00,60.00,Saturday
19,985533.4229541953
55,0.0
499,0.0
2,5, 1, 5, 0,13, 0.00,60.00,Saturday
19,985533.4229541953
55,0.0
499,0.0
2,5, 1, 5, 0,14, 0.00,60.00,Saturday
19,985533.4229541953
55,0.0
499,0.0
2,5, 1, 5, 0,15, 0.00,60.00,Saturday
19,985533.4229541953
55,0.0
499,0.0
2,5, 1, 5, 0,16, 0.00,60.00,Saturday
19,985533.4229541953
55,0.0
499,0.0
2,5, 1, 5, 0,17, 0.00,60.00,Saturday
19,985533.4229541953
55,0.0
499,0.0
2,5, 1, 5, 0,18, 0.00,60.00,Saturday
19,985533.4229541953
55,0.0
499,0.0
2,5, 1, 5, 0,19, 0.00,60.00,Saturday
19,985533.4229541953
55,0.0
499,0.0
2,5, 1, 5, 0,20, 0.00,60.00,Saturday
19,985533.4229541953
55,0.0
499,0.0
2,5, 1, 5, 0,21, 0.00,60.00,Saturday
19,985533.4229541953
55,0.0
499,0.0
2,5, 1, 5, 0,22, 0.00,60.00,Saturday
19,985533.4229541953
55,0.0
499,0.0
2,5, 1, 5, 0,23, 0.00,60.00,Saturday
19,985533.4229541953
55,0.0
499,0.0
2,5, 1, 5, 0,24, 0.00,60.00,Saturday
19,985533.4229541953
55,0.0
499,0.0
2,6, 1, 6, 0, 1, 0.00,60.00,Sunday
19,985533.4229541953
55,0.0
499,0.0
2,6, 1, 6, 0, 2, 0.00,60.00,Sunday
19,985533.4229541953
55,0.0
499,0.0
2,6, 1, 6, 0, 3, 0.00,60.00,Sunday
19,985533.4229541953
55,0.0
499,0.0
2,6, 1, 6, 0, 4, 0.00,60.00,Sunday
19,985533.4229541953
55,0.0
499,0.0
2,6, 1, 6, 0, 5, 0.00,60.00,Sunday
19,985533.4229541953
55,0.0
499,0.0
2,6, 1, 6, 0, 6, 0.00,60.00,Sunday
19,1078240.0429114444
55,0.0
499,0.0
2,6, 1, 6, 0, 7, 0.00,60.00,Sunday
19,1717157.0435517389
55,0.0
499,0.0
2,6, 1, 6, 0, 8, 0.00,60.00,Sunday
19,2257587.2767225119
55,0.0
499,0.0
2,6, 1, 6, 0, 9, 0.00,60.00,Sunday
19,2406645.819421222
55,0.0
499,0.0
2,6, 1, 6, 0,10, 0.00,60.00,Sunday
19,1575686.8636341547
55,0.0
499,0.0
2,6, 1, 6, 0,11, 0.00,60.00,Sunday
19,1007777.4518151329
55,0.0
499,0.0
2,6, 1, 6, 0,12, 0.00,60.00,Sunday
19,985533.4229541953
55,0.0
499,0.0
2,6, 1, 6, 0,13, 0.00,60.00,Sunday
19,985533.4229541953
55,0.0
499,0.0
2,6, 1, 6, 0,14, 0.00,60.00,Sunday
19,985533.4229541953
55,0.0
499,0.0
2,6, 1, 6, 0,15, 0.00,60.00,Sunday
19,985533.4229541953
55,0.0
499,0.0
2,6, 1, 6, 0,16, 0.00,60.00,Sunday
19,985533.4229541953
55,0.0
499,0.0
2,6, 1, 6, 0,17, 0.00,60.00,Sunday
19,985533.4229541953
55,0.0
499,0.0
2,6, 1, 6, 0,18, 0.00,60.00,Sunday
19,985533.4229541953
55,0.0
499,0.0
2,6, 1, 6, 0,19, 0.00,60.00,Sunday
19,985533.4229541953
55,0.0
499,0.0
2,6, 1, 6, 0,20, 0.00,60.00,Sunday
19,985533.4229541953
55,0.0
499,0.0
2,6, 1, 6, 0,21, 0.00,60.00,Sunday
19,985533.4229541953
55,0.0
499,0.0
2,6, 1, 6, 0,22, 0.00,60.00,Sunday
19,985533.4229541953
55,0.0
499,0.0
2,6, 1, 6, 0,23, 0.00,60.00,Sunday
19,985533.4229541953
55,0.0
499,0.0
2,6, 1, 6, 0,24, 0.00,60.00,Sunday
19,985533.4229541953
55,0.0
499,0.0
2,7, 1, 7, 0, 1, 0.00,60.00,Monday
19,985533.4229541953
55,0.0
499,0.0
2,7, 1, 7, 0, 2, 0.00,60.00,Monday
19,985533.4229541953
55,0.0
499,0.0
2,7, 1, 7, 0, 3, 0.00,60.00,Monday
19,1370372.8993963549
55,0.0
499,0.0
2,7, 1, 7, 0, 4, 0.00,60.00,Monday
19,2231278.0188132675
55,0.0
499,0.0
2,7, 1, 7, 0, 5, 0.00,60.00,Monday
19,2628972.679326178
55,0.0
499,0.0
2,7, 1, 7, 0, 6, 0.00,60.00,Monday
19,2976786.3886402689
55,0.0
499,0.0
2,7, 1, 7, 0, 7, 0.00,60.00,Monday
19,3159345.073207427
55,0.0
499,0.0
2,7, 1, 7, 0, 8, 0.00,60.00,Monday
19,15118777.415536717
55,12977169.904799996
499,0.0
2,7, 1, 7, 0, 9, 0.00,60.00,Monday
19,14501801.598837154
55,12977169.904799996
499,0.0
2,7, 1, 7, 0,10, 0.00,60.00,Monday
19,13962703.327754192
55,12977169.904799996
499,0.0
2,7, 1, 7, 0,11, 0.00,60.00,Monday
19,13962703.327754192
55,12977169.904799996
499,0.0
2,7, 1, 7, 0,12, 0.00,60.00,Monday
19,13962703.327754192
55,12977169.904799996
499,0.0
2,7, 1, 7, 0,13, 0.00,60.00,Monday
19,13962703.327754192
55,12977169.904799996
499,0.0
2,7, 1, 7, 0,14, 0.00,60.00,Monday
19,13962703.327754192
55,12977169.904799996
499,0.0
2,7, 1, 7, 0,15, 0.00,60.00,Monday
19,13962703.327754192
55,12977169.904799996
499,0.0
2,7, 1, 7, 0,16, 0.00,60.00,Monday
19,13962703.327754192
55,12977169.904799996
499,0.0
2,7, 1, 7, 0,17, 0.00,60.00,Monday
19,13962703.327754192
55,12977169.904799996
499,0.0
2,7, 1, 7, 0,18, 0.00,60.00,Monday
19,13962703.327754192
55,12977169.904799996
499,0.0
2,7, 1, 7, 0,19, 0.00,60.00,Monday
19,13962703.327754192
55,12977169.904799996
499,0.0
2,7, 1, 7, 0,20, 0.00,60.00,Monday
19,985533.4229541953
55,0.0
499,0.0
2,7, 1, 7, 0,21, 0.00,60.00,Monday
19,985533.4229541953
55,0.0
499,0.0
2,7, 1, 7, 0,22, 0.00,60.00,Monday
19,985533.4229541953
55,0.0
499,0.0
2,7, 1, 7, 0,23, 0.00,60.00,Monday
19,985533.4229541953
55,0.0
499,0.0
2,7, 1, 7, 0,24, 0.00,60.00,Monday
19,985533.4229541953
55,0.0
499,0.0
2,8, 1, 8, 0, 1, 0.00,60.00,Tuesday
19,985533.4229541953
55,0.0
499,0.0
2,8, 1, 8, 0, 2, 0.00,60.00,Tuesday
19,1802223.7500252848
55,0.0
499,0.0
2,8, 1, 8, 0, 3, 0.00,60.00,Tuesday
19,2714941.2760027616
55,0.0
499,0.0
2,8, 1, 8, 0, 4, 0.00,60.00,Tuesday
19,3338836.401834472
55,0.0
499,0.0
2,8, 1, 8, 0, 5, 0.00,60.00,Tuesday
19,4082630.5801483599
55,0.0
499,0.0
2,8, 1, 8, 0, 6, 0.00,60.00,Tuesday
19,4984672.375548318
55,0.0
499,0.0
2,8, 1, 8, 0, 7, 0.00,60.00,Tuesday
19,5884554.267665132
55,0.0
499,0.0
2,8, 1, 8, 0, 8, 0.00,60.00,Tuesday
19,17326061.471654566
55,12977169.904799996
499,0.0
2,8, 1, 8, 0, 9, 0.00,60.00,Tuesday
19,16343777.599786018
55,12977169.904799996
499,0.0
2,8, 1, 8, 0,10, 0.00,60.00,Tuesday
19,14600605.02284395
55,12977169.904799996
499,0.0
2,8, 1, 8, 0,11, 0.00,60.00,Tuesday
19,13962703.327754192
55,12977169.904799996
499,0.0
2,8, 1, 8, 0,12, 0.00,60.00,Tuesday
19,13962703.327754192
55,12977169.904799996
499,0.0
2,8, 1, 8, 0,13, 0.00,60.00,Tuesday
19,13962703.327754192
55,12977169.904799996
499,0.0
2,8, 1, 8, 0,14, 0.00,60.00,Tuesday
19,13962703.327754192
55,12977169.904799996
499,0.0
2,8, 1, 8, 0,15, 0.00,60.00,Tuesday
19,13962703.327754192
55,12977169.904799996
499,0.0
2,8, 1, 8, 0,16, 0.00,60.00,Tuesday
19,13962703.327754192
55,12977169.904799996
499,0.0
2,8, 1, 8, 0,17, 0.00,60.00,Tuesday
19,13962703.327754192
55,12977169.904799996
499,0.0
2,8, 1, 8, 0,18, 0.00,60.00,Tuesday
19,13962703.327754192
55,12977169.904799996
499,0.0
2,8, 1, 8, 0,19, 0.00,60.00,Tuesday
19,13962703.327754192
55,12977169.904799996
499,0.0
2,8, 1, 8, 0,20, 0.00,60.00,Tuesday
19,985533.4229541953
55,0.0
499,0.0
2,8, 1, 8, 0,21, 0.00,60.00,Tuesday
19,985533.4229541953
55,0.0
499,0.0
2,8, 1, 8, 0,22, 0.00,60.00,Tuesday
19,985533.4229541953
55,0.0
499,0.0
2,8, 1, 8, 0,23, 0.00,60.00,Tuesday
19,1144608.0051344138
55,0.0
499,0.0
2,8, 1, 8, 0,24, 0.00,60.00,Tuesday
19,3107457.1354003546
55,0.0
499,0.0
2,9, 1, 9, 0, 1, 0.00,60.00,Wednesday
19,4748514.315075922
55,0.0
499,0.0
2,9, 1, 9, 0, 2, 0.00,60.00,Wednesday
19,5582503.53485188
55,0.0
499,0.0
2,9, 1, 9, 0, 3, 0.00,60.00,Wednesday
19,6248786.393426374
55,0.0
499,0.0
2,9, 1, 9, 0, 4, 0.00,60.00,Wednesday
19,6986164.209377707
55,0.0
499,0.0
2,9, 1, 9, 0, 5, 0.00,60.00,Wednesday
19,7544856.152985543
55,0.0
499,0.0
2,9, 1, 9, 0, 6, 0.00,60.00,Wednesday
19,7935663.25273563
55,0.0
499,0.0
2,9, 1, 9, 0, 7, 0.00,60.00,Wednesday
19,8230693.296774895
55,0.0
499,0.0
2,9, 1, 9, 0, 8, 0.00,60.00,Wednesday
19,19590014.503888623
55,12977169.904799996
499,0.0
2,9, 1, 9, 0, 9, 0.00,60.00,Wednesday
19,18841674.017222115
55,12977169.904799996
499,0.0
2,9, 1, 9, 0,10, 0.00,60.00,Wednesday
19,17298793.338576449
55,12977169.904799996
499,0.0
2,9, 1, 9, 0,11, 0.00,60.00,Wednesday
19,15427395.1083174
55,12977169.904799996
499,0.0
2,9, 1, 9, 0,12, 0.00,60.00,Wednesday
19,14005497.450627817
55,12977169.904799996
499,0.0
2,9, 1, 9, 0,13, 0.00,60.00,Wednesday
19,13962703.327754192
55,12977169.904799996
499,0.0
2,9, 1, 9, 0,14, 0.00,60.00,Wednesday
19,13962703.327754192
55,12977169.904799996
499,0.0
2,9, 1, 9, 0,15, 0.00,60.00,Wednesday
19,13962703.327754192
55,12977169.904799996
499,0.0
2,9, 1, 9, 0,16, 0.00,60.00,Wednesday
19,13962703.327754192
55,12977169.904799996
499,0.0
2,9, 1, 9, 0,17, 0.00,60.00,Wednesday
19,13962703.327754192
55,12977169.904799996
499,0.0
2,9, 1, 9, 0,18, 0.00,60.00,Wednesday
19,13962703.327754192
55,12977169.904799996
499,0.0
2,9, 1, 9, 0,19, 0.00,60.00,Wednesday
19,13962703.327754192
55,12977169.904799996
499,0.0
2,9, 1, 9, 0,20, 0.00,60.00,Wednesday
19,985533.4229541953
55,0.0
499,0.0
2,9, 1, 9, 0,21, 0.00,60.00,Wednesday
19,985533.4229541953
55,0.0
499,0.0
2,9, 1, 9, 0,22, 0.00,60.00,Wednesday
19,985533.4229541953
55,0.0
499,0.0
2,9, 1, 9, 0,23, 0.00,60.00,Wednesday
19,985533.4229541953
55,0.0
499,0.0
2,9, 1, 9, 0,24, 0.00,60.00,Wednesday
19,985533.4229541953
55,0.0
499,0.0
2,10, 1,10, 0, 1, 0.00,60.00,Thursday
19,985533.4229541953
55,0.0
499,0.0
2,10, 1,10, 0, 2, 0.00,60.00,Thursday
19,2232968.870736842
55,0.0
499,0.0
2,10, 1,10, 0, 3, 0.00,60.00,Thursday
19,3741420.704238876
55,0.0
499,0.0
2,10, 1,10, 0, 4, 0.00,60.00,Thursday
19,3313896.2057277758
55,0.0
499,0.0
2,10, 1,10, 0, 5, 0.00,60.00,Thursday
19,3665670.221714637
55,0.0
499,0.0
2,10, 1,10, 0, 6, 0.00,60.00,Thursday
19,4659679.870281628
55,0.0
499,0.0
2,10, 1,10, 0, 7, 0.00,60.00,Thursday
19,5601359.100633543
55,0.0
499,0.0
2,10, 1,10, 0, 8, 0.00,60.00,Thursday
19,17071805.27968819
55,12977169.904799996
499,0.0
2,10, 1,10, 0, 9, 0.00,60.00,Thursday
19,16102019.798536389
55,12977169.904799996
499,0.0
2,10, 1,10, 0,10, 0.00,60.00,Thursday
19,14875596.300333528
55,12977169.904799996
499,0.0
2,10, 1,10, 0,11, 0.00,60.00,Thursday
19,14019110.261547257
55,12977169.904799996
499,0.0
2,10, 1,10, 0,12, 0.00,60.00,Thursday
19,13962703.327754192
55,12977169.904799996
499,0.0
2,10, 1,10, 0,13, 0.00,60.00,Thursday
19,13962703.327754192
55,12977169.904799996
499,0.0
2,10, 1,10, 0,14, 0.00,60.00,Thursday
19,13962703.327754192
55,12977169.904799996
499,0.0
2,10, 1,10, 0,15, 0.00,60.00,Thursday
19,13962703.327754192
55,12977169.904799996
499,0.0
2,10, 1,10, 0,16, 0.00,60.00,Thursday
19,13962703.327754192
55,12977169.904799996
499,0.0
2,10, 1,10, 0,17, 0.00,60.00,Thursday
19,13962703.327754192
55,12977169.904799996
499,0.0
2,10, 1,10, 0,18, 0.00,60.00,Thursday
19,13962703.327754192
55,12977169.904799996
499,0.0
2,10, 1,10, 0,19, 0.00,60.00,Thursday
19,13962703.327754192
55,12977169.904799996
499,0.0
2,10, 1,10, 0,20, 0.00,60.00,Thursday
19,985533.4229541953
55,0.0
499,0.0
2,10, 1,10, 0,21, 0.00,60.00,Thursday
19,985533.4229541953
55,0.0
499,0.0
2,10, 1,10, 0,22, 0.00,60.00,Thursday
19,985533.4229541953
55,0.0
499,0.0
2,10, 1,10, 0,23, 0.00,60.00,Thursday
19,985533.4229541953
55,0.0
499,0.0
2,10, 1,10, 0,24, 0.00,60.00,Thursday
19,985533.4229541953
55,0.0
499,0.0
2,11, 1,11, 0, 1, 0.00,60.00,Friday
19,985533.4229541953
55,0.0
499,0.0
2,11, 1,11, 0, 2, 0.00,60.00,Friday
19,1609181.586063603
55,0.0
499,0.0
2,11, 1,11, 0, 3, 0.00,60.00,Friday
19,3539774.724201321
55,0.0
499,0.0
2,11, 1,11, 0, 4, 0.00,60.00,Friday
19,4925807.327814316
55,0.0
499,0.0
2,11, 1,11, 0, 5, 0.00,60.00,Friday
19,5940505.305876836
55,0.0
499,0.0
2,11, 1,11, 0, 6, 0.00,60.00,Friday
19,6732258.572019696
55,0.0
499,0.0
2,11, 1,11, 0, 7, 0.00,60.00,Friday
19,7078175.519922415
55,0.0
499,0.0
2,11, 1,11, 0, 8, 0.00,60.00,Friday
19,18226919.70626906
55,12977169.904799996
499,0.0
2,11, 1,11, 0, 9, 0.00,60.00,Friday
19,17254109.76450057
55,12977169.904799996
499,0.0
2,11, 1,11, 0,10, 0.00,60.00,Friday
19,15511828.481153084
55,12977169.904799996
499,0.0
2,11, 1,11, 0,11, 0.00,60.00,Friday
19,14100206.489554214
55,12977169.904799996
499,0.0
2,11, 1,11, 0,12, 0.00,60.00,Friday
19,13962703.327754192
55,12977169.904799996
499,0.0
2,11, 1,11, 0,13, 0.00,60.00,Friday
19,13962703.327754192
55,12977169.904799996
499,0.0
2,11, 1,11, 0,14, 0.00,60.00,Friday
19,13962703.327754192
55,12977169.904799996
499,0.0
2,11, 1,11, 0,15, 0.00,60.00,Friday
19,13962703.327754192
55,12977169.904799996
499,0.0
2,11, 1,11, 0,16, 0.00,60.00,Friday
19,13962703.327754192
55,12977169.904799996
499,0.0
2,11, 1,11, 0,17, 0.00,60.00,Friday
19,14055797.607787896
55,12977169.904799996
499,0.0
2,11, 1,11, 0,18, 0.00,60.00,Friday
19,14039936.01777231
55,12977169.904799996
499,0.0
2,11, 1,11, 0,19, 0.00,60.00,Friday
19,13962703.327754192
55,12977169.904799996
499,0.0
2,11, 1,11, 0,20, 0.00,60.00,Friday
19,985533.4229541953
55,0.0
499,0.0
2,11, 1,11, 0,21, 0.00,60.00,Friday
19,985533.4229541953
55,0.0
499,0.0
2,11, 1,11, 0,22, 0.00,60.00,Friday
19,985533.4229541953
55,0.0
499,0.0
2,11, 1,11, 0,23, 0.00,60.00,Friday
19,985533.4229541953
55,0.0
499,0.0
2,11, 1,11, 0,24, 0.00,60.00,Friday
19,985533.4229541953
55,0.0
499,0.0
2,12, 1,12, 0, 1, 0.00,60.00,Saturday
19,985533.4229541953
55,0.0
499,0.0
2,12, 1,12, 0, 2, 0.00,60.00,Saturday
19,1446035.9283119138
55,0.0
499,0.0
2,12, 1,12, 0, 3, 0.00,60.00,Saturday
19,2741448.9181233227
55,0.0
499,0.0
2,12, 1,12, 0, 4, 0.00,60.00,Saturday
19,3771822.5568873735
55,0.0
499,0.0
2,12, 1,12, 0, 5, 0.00,60.00,Saturday
19,4681356.913393725
55,0.0
499,0.0
2,12, 1,12, 0, 6, 0.00,60.00,Saturday
19,5518440.868397436
55,0.0
499,0.0
2,12, 1,12, 0, 7, 0.00,60.00,Saturday
19,6313441.095414719
55,0.0
499,0.0
2,12, 1,12, 0, 8, 0.00,60.00,Saturday
19,7048017.66941942
55,0.0
499,0.0
2,12, 1,12, 0, 9, 0.00,60.00,Saturday
19,7416422.047528342
55,0.0
499,0.0
2,12, 1,12, 0,10, 0.00,60.00,Saturday
19,5938620.9458043989
55,0.0
499,0.0
2,12, 1,12, 0,11, 0.00,60.00,Saturday
19,3901495.4030032365
55,0.0
499,0.0
2,12, 1,12, 0,12, 0.00,60.00,Saturday
19,1666852.956839264
55,0.0
499,0.0
2,12, 1,12, 0,13, 0.00,60.00,Saturday
19,985533.4229541953
55,0.0
499,0.0
2,12, 1,12, 0,14, 0.00,60.00,Saturday
19,985533.4229541953
55,0.0
499,0.0
2,12, 1,12, 0,15, 0.00,60.00,Saturday
19,985533.4229541953
55,0.0
499,0.0
2,12, 1,12, 0,16, 0.00,60.00,Saturday
19,985533.4229541953
55,0.0
499,0.0
2,12, 1,12, 0,17, 0.00,60.00,Saturday
19,985533.4229541953
55,0.0
499,0.0
2,12, 1,12, 0,18, 0.00,60.00,Saturday
19,985533.4229541953
55,0.0
499,0.0
2,12, 1,12, 0,19, 0.00,60.00,Saturday
19,985533.4229541953
55,0.0
499,0.0
2,12, 1,12, 0,20, 0.00,60.00,Saturday
19,985533.4229541953
55,0.0
499,0.0
2,12, 1,12, 0,21, 0.00,60.00,Saturday
19,985533.4229541953
55,0.0
499,0.0
2,12, 1,12, 0,22, 0.00,60.00,Saturday
19,985533.4229541953
55,0.0
499,0.0
2,12, 1,12, 0,23, 0.00,60.00,Saturday
19,985533.4229541953
55,0.0
499,0.0
2,12, 1,12, 0,24, 0.00,60.00,Saturday
19,985533.4229541953
55,0.0
499,0.0
2,13, 1,13, 0, 1, 0.00,60.00,Sunday
19,985533.4229541953
55,0.0
499,0.0
2,13, 1,13, 0, 2, 0.00,60.00,Sunday
19,985533.4229541953
55,0.0
499,0.0
2,13, 1,13, 0, 3, 0.00,60.00,Sunday
19,985533.4229541953
55,0.0
499,0.0
2,13, 1,13, 0, 4, 0.00,60.00,Sunday
19,985533.4229541953
55,0.0
499,0.0
2,13, 1,13, 0, 5, 0.00,60.00,Sunday
19,985533.4229541953
55,0.0
499,0.0
2,13, 1,13, 0, 6, 0.00,60.00,Sunday
19,2261927.9886122385
55,0.0
499,0.0
2,13, 1,13, 0, 7, 0.00,60.00,Sunday
19,3524772.618511257
55,0.0
499,0.0
2,13, 1,13, 0, 8, 0.00,60.00,Sunday
19,4430321.979722807
55,0.0
499,0.0
2,13, 1,13, 0, 9, 0.00,60.00,Sunday
19,5035383.140354084
55,0.0
499,0.0
2,13, 1,13, 0,10, 0.00,60.00,Sunday
19,4660447.579226836
55,0.0
499,0.0
2,13, 1,13, 0,11, 0.00,60.00,Sunday
19,3923008.511439517
55,0.0
499,0.0
2,13, 1,13, 0,12, 0.00,60.00,Sunday
19,2888741.6962464058
55,0.0
499,0.0
2,13, 1,13, 0,13, 0.00,60.00,Sunday
19,1290098.5682739183
55,0.0
499,0.0
2,13, 1,13, 0,14, 0.00,60.00,Sunday
19,985533.4229541953
55,0.0
499,0.0
2,13, 1,13, 0,15, 0.00,60.00,Sunday
19,985533.4229541953
55,0.0
499,0.0
2,13, 1,13, 0,16, 0.00,60.00,Sunday
19,985533.4229541953
55,0.0
499,0.0
2,13, 1,13, 0,17, 0.00,60.00,Sunday
19,985533.4229541953
55,0.0
499,0.0
2,13, 1,13, 0,18, 0.00,60.00,Sunday
19,985533.4229541953
55,0.0
499,0.0
2,13, 1,13, 0,19, 0.00,60.00,Sunday
19,985533.4229541953
55,0.0
499,0.0
2,13, 1,13, 0,20, 0.00,60.00,Sunday
19,985533.4229541953
55,0.0
499,0.0
2,13, 1,13, 0,21, 0.00,60.00,Sunday
19,985533.4229541953
55,0.0
499,0.0
2,13, 1,13, 0,22, 0.00,60.00,Sunday
19,1201995.7848347338
55,0.0
499,0.0
2,13, 1,13, 0,23, 0.00,60.00,Sunday
19,2898200.8019281479
55,0.0
499,0.0
2,13, 1,13, 0,24, 0.00,60.00,Sunday
19,4335487.3672198769
55,0.0
499,0.0
2,14, 1,14, 0, 1, 0.00,60.00,Monday
19,5587989.871413945
55,0.0
499,0.0
2,14, 1,14, 0, 2, 0.00,60.00,Monday
19,6492806.5305544049
55,0.0
499,0.0
2,14, 1,14, 0, 3, 0.00,60.00,Monday
19,7209510.90173994
55,0.0
499,0.0
2,14, 1,14, 0, 4, 0.00,60.00,Monday
19,7881554.791921161
55,0.0
499,0.0
2,14, 1,14, 0, 5, 0.00,60.00,Monday
19,8487371.48368101
55,0.0
499,0.0
2,14, 1,14, 0, 6, 0.00,60.00,Monday
19,9027788.266362649
55,0.0
499,0.0
2,14, 1,14, 0, 7, 0.00,60.00,Monday
19,9503879.686623425
55,0.0
499,0.0
2,14, 1,14, 0, 8, 0.00,60.00,Monday
19,20590714.247149394
55,12977169.904799996
499,0.0
2,14, 1,14, 0, 9, 0.00,60.00,Monday
19,19524690.586187539
55,12977169.904799996
499,0.0
2,14, 1,14, 0,10, 0.00,60.00,Monday
19,17785555.532474068
55,12977169.904799996
499,0.0
2,14, 1,14, 0,11, 0.00,60.00,Monday
19,15989002.370155111
55,12977169.904799996
499,0.0
2,14, 1,14, 0,12, 0.00,60.00,Monday
19,14343301.630029353
55,12977169.904799996
499,0.0
2,14, 1,14, 0,13, 0.00,60.00,Monday
19,13962703.327754192
55,12977169.904799996
499,0.0
2,14, 1,14, 0,14, 0.00,60.00,Monday
19,13962703.327754192
55,12977169.904799996
499,0.0
2,14, 1,14, 0,15, 0.00,60.00,Monday
19,13962703.327754192
55,12977169.904799996
499,0.0
2,14, 1,14, 0,16, 0.00,60.00,Monday
19,13962703.327754192
55,12977169.904799996
499,0.0
2,14, 1,14, 0,17, 0.00,60.00,Monday
19,13962703.327754192
55,12977169.904799996
499,0.0
2,14, 1,14, 0,18, 0.00,60.00,Monday
19,13962703.327754192
55,12977169.904799996
499,0.0
2,14, 1,14, 0,19, 0.00,60.00,Monday
19,13962703.327754192
55,12977169.904799996
499,0.0
2,14, 1,14, 0,20, 0.00,60.00,Monday
19,985533.4229541953
55,0.0
499,0.0
2,14, 1,14, 0,21, 0.00,60.00,Monday
19,985533.4229541953
55,0.0
499,0.0
2,14, 1,14, 0,22, 0.00,60.00,Monday
19,985533.4229541953
55,0.0
499,0.0
2,14, 1,14, 0,23, 0.00,60.00,Monday
19,985533.4229541953
55,0.0
499,0.0
2,14, 1,14, 0,24, 0.00,60.00,Monday
19,1032961.2304704333
55,0.0
499,0.0
2,15, 1,15, 0, 1, 0.00,60.00,Tuesday
19,2454549.07058287
55,0.0
499,0.0
2,15, 1,15, 0, 2, 0.00,60.00,Tuesday
19,3978985.9027316106
55,0.0
499,0.0
2,15, 1,15, 0, 3, 0.00,60.00,Tuesday
19,5369768.833337668
55,0.0
499,0.0
2,15, 1,15, 0, 4, 0.00,60.00,Tuesday
19,6537880.380377019
55,0.0
499,0.0
2,15, 1,15, 0, 5, 0.00,60.00,Tuesday
19,7099381.977114737
55,0.0
499,0.0
2,15, 1,15, 0, 6, 0.00,60.00,Tuesday
19,7219968.141775628
55,0.0
499,0.0
2,15, 1,15, 0, 7, 0.00,60.00,Tuesday
19,7243047.332706493
55,0.0
499,0.0
2,15, 1,15, 0, 8, 0.00,60.00,Tuesday
19,18677738.086409678
55,12977169.904799996
499,0.0
2,15, 1,15, 0, 9, 0.00,60.00,Tuesday
19,18283042.485356805
55,12977169.904799996
499,0.0
2,15, 1,15, 0,10, 0.00,60.00,Tuesday
19,17127090.898684596
55,12977169.904799996
499,0.0
2,15, 1,15, 0,11, 0.00,60.00,Tuesday
19,15232991.955533248
55,12977169.904799996
499,0.0
2,15, 1,15, 0,12, 0.00,60.00,Tuesday
19,13962703.327754192
55,12977169.904799996
499,0.0
2,15, 1,15, 0,13, 0.00,60.00,Tuesday
19,13962703.327754192
55,12977169.904799996
499,0.0
2,15, 1,15, 0,14, 0.00,60.00,Tuesday
19,13962703.327754192
55,12977169.904799996
499,0.0
2,15, 1,15, 0,15, 0.00,60.00,Tuesday
19,13962703.327754192
55,12977169.904799996
499,0.0
2,15, 1,15, 0,16, 0.00,60.00,Tuesday
19,13962703.327754192
55,12977169.904799996
499,0.0
2,15, 1,15, 0,17, 0.00,60.00,Tuesday
19,13962703.327754192
55,12977169.904799996
499,0.0
2,15, 1,15, 0,18, 0.00,60.00,Tuesday
19,13965305.694632104
55,12977169.904799996
499,0.0
2,15, 1,15, 0,19, 0.00,60.00,Tuesday
19,13962703.327754192
55,12977169.904799996
499,0.0
2,15, 1,15, 0,20, 0.00,60.00,Tuesday
19,985533.4229541953
55,0.0
499,0.0
2,15, 1,15, 0,21, 0.00,60.00,Tuesday
19,985533.4229541953
55,0.0
499,0.0
2,15, 1,15, 0,22, 0.00,60.00,Tuesday
19,985533.4229541953
55,0.0
499,0.0
2,15, 1,15, 0,23, 0.00,60.00,Tuesday
19,985533.4229541953
55,0.0
499,0.0
2,15, 1,15, 0,24, 0.00,60.00,Tuesday
19,985533.4229541953
55,0.0
499,0.0
2,16, 1,16, 0, 1, 0.00,60.00,Wednesday
19,2520416.723547273
55,0.0
499,0.0
2,16, 1,16, 0, 2, 0.00,60.00,Wednesday
19,4014711.098237971
55,0.0
499,0.0
2,16, 1,16, 0, 3, 0.00,60.00,Wednesday
19,5185969.44089523
55,0.0
499,0.0
2,16, 1,16, 0, 4, 0.00,60.00,Wednesday
19,6462226.050840046
55,0.0
499,0.0
2,16, 1,16, 0, 5, 0.00,60.00,Wednesday
19,7318861.92188757
55,0.0
499,0.0
2,16, 1,16, 0, 6, 0.00,60.00,Wednesday
19,7704743.621708277
55,0.0
499,0.0
2,16, 1,16, 0, 7, 0.00,60.00,Wednesday
19,7989534.006153579
55,0.0
499,0.0
2,16, 1,16, 0, 8, 0.00,60.00,Wednesday
19,20226700.46053765
55,12977169.904799996
499,0.0
2,16, 1,16, 0, 9, 0.00,60.00,Wednesday
19,19932832.425472496
55,12977169.904799996
499,0.0
2,16, 1,16, 0,10, 0.00,60.00,Wednesday
19,18045947.47722477
55,12977169.904799996
499,0.0
2,16, 1,16, 0,11, 0.00,60.00,Wednesday
19,15871972.789078635
55,12977169.904799996
499,0.0
2,16, 1,16, 0,12, 0.00,60.00,Wednesday