Program Version,EnergyPlus, Version 9.4.0-998c4b761e, YMD=2025.11.26 19:36
1,5,Environment Title[],Latitude[deg],Longitude[deg],Time Zone[],Elevation[m]
2,8,Day of Simulation[],Month[],Day of Month[],DST Indicator[1=yes 0=no],Hour[],StartMinute[],EndMinute[],DayType
3,5,Cumulative Day of Simulation[],Month[],Day of Month[],DST Indicator[1=yes 0=no],DayType  ! When Daily Meters Requested
4,2,Cumulative Days of Simulation[],Month[]  ! When Monthly Meters Requested
5,1,Cumulative Days of Simulation[] ! When Run Period Meters Requested
6,1,Calendar Year of Simulation[] ! When Annual Meters Requested
19,1,Electricity:Facility [J] !Hourly
55,1,InteriorLights:Electricity [J] !Hourly
509,1,Carbon Equivalent:Facility [kg] !Hourly
End of Data Dictionary
1,CICSE ALJARAFE CENTER (01-01:31-12),  37.42,  -5.90,   1.00,  31.00
2,1, 1, 1, 0, 1, 0.00,60.00,Tuesday
19,4285752.744906509
55,0.0
509,0.0
2,1, 1, 1, 0, 2, 0.00,60.00,Tuesday
19,2805397.821514418
55,0.0
509,0.0
2,1, 1, 1, 0, 3, 0.00,60.00,Tuesday
19,1766707.3624781827
55,0.0
509,0.0
2,1, 1, 1, 0, 4, 0.00,60.00,Tuesday
19,1415734.7982799949
55,0.0
509,0.0
2,1, 1, 1, 0, 5, 0.00,60.00,Tuesday
19,2108343.218689701
55,0.0
509,0.0
2,1, 1, 1, 0, 6, 0.00,60.00,Tuesday
19,2646505.546993345
55,0.0
509,0.0
2,1, 1, 1, 0, 7, 0.00,60.00,Tuesday
19,3170088.167344585
55,0.0
509,0.0
2,1, 1, 1, 0, 8, 0.00,60.00,Tuesday
19,17928609.826952489
55,12977169.904799996
509,0.0
2,1, 1, 1, 0, 9, 0.00,60.00,Tuesday
19,18843794.516782706
55,12977169.904799996
509,0.0
2,1, 1, 1, 0,10, 0.00,60.00,Tuesday
19,19728509.625062609
55,12977169.904799996
509,0.0
2,1, 1, 1, 0,11, 0.00,60.00,Tuesday
19,21027093.791567029
55,12977169.904799996
509,0.0
2,1, 1, 1, 0,12, 0.00,60.00,Tuesday
19,21764638.714968858
55,12977169.904799996
509,0.0
2,1, 1, 1, 0,13, 0.00,60.00,Tuesday
19,22243389.70758811
55,12977169.904799996
509,0.0
2,1, 1, 1, 0,14, 0.00,60.00,Tuesday
19,23134547.890744475
55,12977169.904799996
509,0.0
2,1, 1, 1, 0,15, 0.00,60.00,Tuesday
19,24142116.50117299
55,12977169.904799996
509,0.0
2,1, 1, 1, 0,16, 0.00,60.00,Tuesday
19,25060925.04902298
55,12977169.904799996
509,0.0
2,1, 1, 1, 0,17, 0.00,60.00,Tuesday
19,24748060.98886983
55,12977169.904799996
509,0.0
2,1, 1, 1, 0,18, 0.00,60.00,Tuesday
19,22522424.819251986
55,12977169.904799996
509,0.0
2,1, 1, 1, 0,19, 0.00,60.00,Tuesday
19,19511219.271493194
55,12977169.904799996
509,0.0
2,1, 1, 1, 0,20, 0.00,60.00,Tuesday
19,2574077.463445143
55,0.0
509,0.0
2,1, 1, 1, 0,21, 0.00,60.00,Tuesday
19,1879800.115466589
55,0.0
509,0.0
2,1, 1, 1, 0,22, 0.00,60.00,Tuesday
19,3398913.796120364
55,0.0
509,0.0
2,1, 1, 1, 0,23, 0.00,60.00,Tuesday
19,4431574.690165255
55,0.0
509,0.0
2,1, 1, 1, 0,24, 0.00,60.00,Tuesday
19,5099386.598923595
55,0.0
509,0.0
2,2, 1, 2, 0, 1, 0.00,60.00,Wednesday
19,5654947.38983809
55,0.0
509,0.0
2,2, 1, 2, 0, 2, 0.00,60.00,Wednesday
19,6352621.798136948
55,0.0
509,0.0
2,2, 1, 2, 0, 3, 0.00,60.00,Wednesday
19,7123716.844162334
55,0.0
509,0.0
2,2, 1, 2, 0, 4, 0.00,60.00,Wednesday
19,7935895.190621499
55,0.0
509,0.0
2,2, 1, 2, 0, 5, 0.00,60.00,Wednesday
19,8439488.815277072
55,0.0
509,0.0
2,2, 1, 2, 0, 6, 0.00,60.00,Wednesday
19,8720491.246978058
55,0.0
509,0.0
2,2, 1, 2, 0, 7, 0.00,60.00,Wednesday
19,8953832.784240526
55,0.0
509,0.0
2,2, 1, 2, 0, 8, 0.00,60.00,Wednesday
19,20127062.702724205
55,12977169.904799996
509,0.0
2,2, 1, 2, 0, 9, 0.00,60.00,Wednesday
19,19183118.4890638
55,12977169.904799996
509,0.0
2,2, 1, 2, 0,10, 0.00,60.00,Wednesday
19,17851344.56788915
55,12977169.904799996
509,0.0
2,2, 1, 2, 0,11, 0.00,60.00,Wednesday
19,16978766.801851795
55,12977169.904799996
509,0.0
2,2, 1, 2, 0,12, 0.00,60.00,Wednesday
19,16140675.936694267
55,12977169.904799996
509,0.0
2,2, 1, 2, 0,13, 0.00,60.00,Wednesday
19,14778784.958208245
55,12977169.904799996
509,0.0
2,2, 1, 2, 0,14, 0.00,60.00,Wednesday
19,15499738.470127689
55,12977169.904799996
509,0.0
2,2, 1, 2, 0,15, 0.00,60.00,Wednesday
19,17491358.269958855
55,12977169.904799996
509,0.0
2,2, 1, 2, 0,16, 0.00,60.00,Wednesday
19,19206878.788190217
55,12977169.904799996
509,0.0
2,2, 1, 2, 0,17, 0.00,60.00,Wednesday
19,19577717.282295515
55,12977169.904799996
509,0.0
2,2, 1, 2, 0,18, 0.00,60.00,Wednesday
19,17979153.3423146
55,12977169.904799996
509,0.0
2,2, 1, 2, 0,19, 0.00,60.00,Wednesday
19,15868813.925462734
55,12977169.904799996
509,0.0
2,2, 1, 2, 0,20, 0.00,60.00,Wednesday
19,2632982.586464434
55,0.0
509,0.0
2,2, 1, 2, 0,21, 0.00,60.00,Wednesday
19,4242452.911956039
55,0.0
509,0.0
2,2, 1, 2, 0,22, 0.00,60.00,Wednesday
19,5418807.581841722
55,0.0
509,0.0
2,2, 1, 2, 0,23, 0.00,60.00,Wednesday
19,6337819.4493518429
55,0.0
509,0.0
2,2, 1, 2, 0,24, 0.00,60.00,Wednesday
19,7063730.229082225
55,0.0
509,0.0
2,3, 1, 3, 0, 1, 0.00,60.00,Thursday
19,7790311.39873439
55,0.0
509,0.0
2,3, 1, 3, 0, 2, 0.00,60.00,Thursday
19,8493030.982190043
55,0.0
509,0.0
2,3, 1, 3, 0, 3, 0.00,60.00,Thursday
19,9053223.33024518
55,0.0
509,0.0
2,3, 1, 3, 0, 4, 0.00,60.00,Thursday
19,9640055.696167509
55,0.0
509,0.0
2,3, 1, 3, 0, 5, 0.00,60.00,Thursday
19,9932141.59478824
55,0.0
509,0.0
2,3, 1, 3, 0, 6, 0.00,60.00,Thursday
19,10037761.931454748
55,0.0
509,0.0
2,3, 1, 3, 0, 7, 0.00,60.00,Thursday
19,9981557.938592665
55,0.0
509,0.0
2,3, 1, 3, 0, 8, 0.00,60.00,Thursday
19,21139313.339332183
55,12977169.904799996
509,0.0
2,3, 1, 3, 0, 9, 0.00,60.00,Thursday
19,20451216.229731237
55,12977169.904799996
509,0.0
2,3, 1, 3, 0,10, 0.00,60.00,Thursday
19,19432998.375136883
55,12977169.904799996
509,0.0
2,3, 1, 3, 0,11, 0.00,60.00,Thursday
19,18303975.497384907
55,12977169.904799996
509,0.0
2,3, 1, 3, 0,12, 0.00,60.00,Thursday
19,16885200.1306056
55,12977169.904799996
509,0.0
2,3, 1, 3, 0,13, 0.00,60.00,Thursday
19,15711249.257890916
55,12977169.904799996
509,0.0
2,3, 1, 3, 0,14, 0.00,60.00,Thursday
19,14488601.238954977
55,12977169.904799996
509,0.0
2,3, 1, 3, 0,15, 0.00,60.00,Thursday
19,15197485.838772167
55,12977169.904799996
509,0.0
2,3, 1, 3, 0,16, 0.00,60.00,Thursday
19,16101950.060897906
55,12977169.904799996
509,0.0
2,3, 1, 3, 0,17, 0.00,60.00,Thursday
19,15813859.927841872
55,12977169.904799996
509,0.0
2,3, 1, 3, 0,18, 0.00,60.00,Thursday
19,15008588.705113328
55,12977169.904799996
509,0.0
2,3, 1, 3, 0,19, 0.00,60.00,Thursday
19,14528387.733474665
55,12977169.904799996
509,0.0
2,3, 1, 3, 0,20, 0.00,60.00,Thursday
19,3386576.7706838238
55,0.0
509,0.0
2,3, 1, 3, 0,21, 0.00,60.00,Thursday
19,5425471.435400996
55,0.0
509,0.0
2,3, 1, 3, 0,22, 0.00,60.00,Thursday
19,6212170.8262968859
55,0.0
509,0.0
2,3, 1, 3, 0,23, 0.00,60.00,Thursday
19,6512902.683276052
55,0.0
509,0.0
2,3, 1, 3, 0,24, 0.00,60.00,Thursday
19,7086967.567978509
55,0.0
509,0.0
2,4, 1, 4, 0, 1, 0.00,60.00,Friday
19,7668868.522866955
55,0.0
509,0.0
2,4, 1, 4, 0, 2, 0.00,60.00,Friday
19,8126739.066374687
55,0.0
509,0.0
2,4, 1, 4, 0, 3, 0.00,60.00,Friday
19,8449985.029071624
55,0.0
509,0.0
2,4, 1, 4, 0, 4, 0.00,60.00,Friday
19,8907115.125114322
55,0.0
509,0.0
2,4, 1, 4, 0, 5, 0.00,60.00,Friday
19,9390075.127141763
55,0.0
509,0.0
2,4, 1, 4, 0, 6, 0.00,60.00,Friday
19,9910199.746817999
55,0.0
509,0.0
2,4, 1, 4, 0, 7, 0.00,60.00,Friday
19,10430189.022806246
55,0.0
509,0.0
2,4, 1, 4, 0, 8, 0.00,60.00,Friday
19,21540434.33338758
55,12977169.904799996
509,0.0
2,4, 1, 4, 0, 9, 0.00,60.00,Friday
19,20292451.05371348
55,12977169.904799996
509,0.0
2,4, 1, 4, 0,10, 0.00,60.00,Friday
19,18582987.08555542
55,12977169.904799996
509,0.0
2,4, 1, 4, 0,11, 0.00,60.00,Friday
19,17489405.64198348
55,12977169.904799996
509,0.0
2,4, 1, 4, 0,12, 0.00,60.00,Friday
19,16247330.424154556
55,12977169.904799996
509,0.0
2,4, 1, 4, 0,13, 0.00,60.00,Friday
19,14771074.122900213
55,12977169.904799996
509,0.0
2,4, 1, 4, 0,14, 0.00,60.00,Friday
19,16637700.454369098
55,12977169.904799996
509,0.0
2,4, 1, 4, 0,15, 0.00,60.00,Friday
19,19160218.006075596
55,12977169.904799996
509,0.0
2,4, 1, 4, 0,16, 0.00,60.00,Friday
19,21339231.847842397
55,12977169.904799996
509,0.0
2,4, 1, 4, 0,17, 0.00,60.00,Friday
19,22339407.872387679
55,12977169.904799996
509,0.0
2,4, 1, 4, 0,18, 0.00,60.00,Friday
19,20857032.48351812
55,12977169.904799996
509,0.0
2,4, 1, 4, 0,19, 0.00,60.00,Friday
19,18108616.91105505
55,12977169.904799996
509,0.0
2,4, 1, 4, 0,20, 0.00,60.00,Friday
19,1820193.9641406518
55,0.0
509,0.0
2,4, 1, 4, 0,21, 0.00,60.00,Friday
19,2330537.790649449
55,0.0
509,0.0
2,4, 1, 4, 0,22, 0.00,60.00,Friday
19,3487961.8713278875
55,0.0
509,0.0
2,4, 1, 4, 0,23, 0.00,60.00,Friday
19,4224801.500304868
55,0.0
509,0.0
2,4, 1, 4, 0,24, 0.00,60.00,Friday
19,4713616.654130315
55,0.0
509,0.0
2,5, 1, 5, 0, 1, 0.00,60.00,Saturday
19,5192583.52046815
55,0.0
509,0.0
2,5, 1, 5, 0, 2, 0.00,60.00,Saturday
19,5657373.680679465
55,0.0
509,0.0
2,5, 1, 5, 0, 3, 0.00,60.00,Saturday
19,6074460.791836267
55,0.0
509,0.0
2,5, 1, 5, 0, 4, 0.00,60.00,Saturday
19,6468228.720778303
55,0.0
509,0.0
2,5, 1, 5, 0, 5, 0.00,60.00,Saturday
19,6783222.282063836
55,0.0
509,0.0
2,5, 1, 5, 0, 6, 0.00,60.00,Saturday
19,7071057.559429552
55,0.0
509,0.0
2,5, 1, 5, 0, 7, 0.00,60.00,Saturday
19,7369451.86049338
55,0.0
509,0.0
2,5, 1, 5, 0, 8, 0.00,60.00,Saturday
19,7649953.148103547
55,0.0
509,0.0
2,5, 1, 5, 0, 9, 0.00,60.00,Saturday
19,7723635.86016645
55,0.0
509,0.0
2,5, 1, 5, 0,10, 0.00,60.00,Saturday
19,6882299.029109309
55,0.0
509,0.0
2,5, 1, 5, 0,11, 0.00,60.00,Saturday
19,5464661.841860405
55,0.0
509,0.0
2,5, 1, 5, 0,12, 0.00,60.00,Saturday
19,3814974.7486786136
55,0.0
509,0.0
2,5, 1, 5, 0,13, 0.00,60.00,Saturday
19,1964089.481293373
55,0.0
509,0.0
2,5, 1, 5, 0,14, 0.00,60.00,Saturday
19,2969231.0246671384
55,0.0
509,0.0
2,5, 1, 5, 0,15, 0.00,60.00,Saturday
19,5472968.307856119
55,0.0
509,0.0
2,5, 1, 5, 0,16, 0.00,60.00,Saturday
19,7619408.293881021
55,0.0
509,0.0
2,5, 1, 5, 0,17, 0.00,60.00,Saturday
19,8235858.049100419
55,0.0
509,0.0
2,5, 1, 5, 0,18, 0.00,60.00,Saturday
19,7007518.878359143
55,0.0
509,0.0
2,5, 1, 5, 0,19, 0.00,60.00,Saturday
19,4759008.391832221
55,0.0
509,0.0
2,5, 1, 5, 0,20, 0.00,60.00,Saturday
19,3334346.8574548179
55,0.0
509,0.0
2,5, 1, 5, 0,21, 0.00,60.00,Saturday
19,1947429.2891539175
55,0.0
509,0.0
2,5, 1, 5, 0,22, 0.00,60.00,Saturday
19,1610194.0597915929
55,0.0
509,0.0
2,5, 1, 5, 0,23, 0.00,60.00,Saturday
19,2476146.5299301038
55,0.0
509,0.0
2,5, 1, 5, 0,24, 0.00,60.00,Saturday
19,3150064.1645505235
55,0.0
509,0.0
2,6, 1, 6, 0, 1, 0.00,60.00,Sunday
19,3798655.902067107
55,0.0
509,0.0
2,6, 1, 6, 0, 2, 0.00,60.00,Sunday
19,5027630.798006032
55,0.0
509,0.0
2,6, 1, 6, 0, 3, 0.00,60.00,Sunday
19,5658477.202122228
55,0.0
509,0.0
2,6, 1, 6, 0, 4, 0.00,60.00,Sunday
19,5387893.668299228
55,0.0
509,0.0
2,6, 1, 6, 0, 5, 0.00,60.00,Sunday
19,5384731.769612653
55,0.0
509,0.0
2,6, 1, 6, 0, 6, 0.00,60.00,Sunday
19,5645494.447042098
55,0.0
509,0.0
2,6, 1, 6, 0, 7, 0.00,60.00,Sunday
19,5945659.408190906
55,0.0
509,0.0
2,6, 1, 6, 0, 8, 0.00,60.00,Sunday
19,6217002.235463284
55,0.0
509,0.0
2,6, 1, 6, 0, 9, 0.00,60.00,Sunday
19,6200324.685305895
55,0.0
509,0.0
2,6, 1, 6, 0,10, 0.00,60.00,Sunday
19,5477689.379470222
55,0.0
509,0.0
2,6, 1, 6, 0,11, 0.00,60.00,Sunday
19,4516852.03414893
55,0.0
509,0.0
2,6, 1, 6, 0,12, 0.00,60.00,Sunday
19,3273693.2570792159
55,0.0
509,0.0
2,6, 1, 6, 0,13, 0.00,60.00,Sunday
19,1774192.0990421086
55,0.0
509,0.0
2,6, 1, 6, 0,14, 0.00,60.00,Sunday
19,3263021.0523411056
55,0.0
509,0.0
2,6, 1, 6, 0,15, 0.00,60.00,Sunday
19,5762924.331470139
55,0.0
509,0.0
2,6, 1, 6, 0,16, 0.00,60.00,Sunday
19,8057795.32798307
55,0.0
509,0.0
2,6, 1, 6, 0,17, 0.00,60.00,Sunday
19,8583369.159573477
55,0.0
509,0.0
2,6, 1, 6, 0,18, 0.00,60.00,Sunday
19,6956436.884982501
55,0.0
509,0.0
2,6, 1, 6, 0,19, 0.00,60.00,Sunday
19,4438463.695322072
55,0.0
509,0.0
2,6, 1, 6, 0,20, 0.00,60.00,Sunday
19,2709608.69300666
55,0.0
509,0.0
2,6, 1, 6, 0,21, 0.00,60.00,Sunday
19,1507298.9433151186
55,0.0
509,0.0
2,6, 1, 6, 0,22, 0.00,60.00,Sunday
19,2403965.8744475014
55,0.0
509,0.0
2,6, 1, 6, 0,23, 0.00,60.00,Sunday
19,3345507.216921446
55,0.0
509,0.0
2,6, 1, 6, 0,24, 0.00,60.00,Sunday
19,4105451.563164184
55,0.0
509,0.0
2,7, 1, 7, 0, 1, 0.00,60.00,Monday
19,4866057.078492152
55,0.0
509,0.0
2,7, 1, 7, 0, 2, 0.00,60.00,Monday
19,5696930.589356764
55,0.0
509,0.0
2,7, 1, 7, 0, 3, 0.00,60.00,Monday
19,6549152.232030965
55,0.0
509,0.0
2,7, 1, 7, 0, 4, 0.00,60.00,Monday
19,6747807.240715008
55,0.0
509,0.0
2,7, 1, 7, 0, 5, 0.00,60.00,Monday
19,6737980.450135401
55,0.0
509,0.0
2,7, 1, 7, 0, 6, 0.00,60.00,Monday
19,6805983.366965557
55,0.0
509,0.0
2,7, 1, 7, 0, 7, 0.00,60.00,Monday
19,6807509.444405532
55,0.0
509,0.0
2,7, 1, 7, 0, 8, 0.00,60.00,Monday
19,18933077.023172868
55,12977169.904799996
509,0.0
2,7, 1, 7, 0, 9, 0.00,60.00,Monday
19,18309938.95491
55,12977169.904799996
509,0.0
2,7, 1, 7, 0,10, 0.00,60.00,Monday
19,16451811.075267302
55,12977169.904799996
509,0.0
2,7, 1, 7, 0,11, 0.00,60.00,Monday
19,15144152.174393939
55,12977169.904799996
509,0.0
2,7, 1, 7, 0,12, 0.00,60.00,Monday
19,14594353.385518555
55,12977169.904799996
509,0.0
2,7, 1, 7, 0,13, 0.00,60.00,Monday
19,16427105.649964352
55,12977169.904799996
509,0.0
2,7, 1, 7, 0,14, 0.00,60.00,Monday
19,18455682.40308955
55,12977169.904799996
509,0.0
2,7, 1, 7, 0,15, 0.00,60.00,Monday
19,20357152.149919265
55,12977169.904799996
509,0.0
2,7, 1, 7, 0,16, 0.00,60.00,Monday
19,21788823.57068029
55,12977169.904799996
509,0.0
2,7, 1, 7, 0,17, 0.00,60.00,Monday
19,21960139.27466724
55,12977169.904799996
509,0.0
2,7, 1, 7, 0,18, 0.00,60.00,Monday
19,20378049.50633896
55,12977169.904799996
509,0.0
2,7, 1, 7, 0,19, 0.00,60.00,Monday
19,17761867.88757659
55,12977169.904799996
509,0.0
2,7, 1, 7, 0,20, 0.00,60.00,Monday
19,1889994.2732463505
55,0.0
509,0.0
2,7, 1, 7, 0,21, 0.00,60.00,Monday
19,3784855.0553309249
55,0.0
509,0.0
2,7, 1, 7, 0,22, 0.00,60.00,Monday
19,4751493.618188451
55,0.0
509,0.0
2,7, 1, 7, 0,23, 0.00,60.00,Monday
19,5161516.337580364
55,0.0
509,0.0
2,7, 1, 7, 0,24, 0.00,60.00,Monday
19,5808567.179607261
55,0.0
509,0.0
2,8, 1, 8, 0, 1, 0.00,60.00,Tuesday
19,6376737.881826606
55,0.0
509,0.0
2,8, 1, 8, 0, 2, 0.00,60.00,Tuesday
19,6766696.825539134
55,0.0
509,0.0
2,8, 1, 8, 0, 3, 0.00,60.00,Tuesday
19,7077908.308972368
55,0.0
509,0.0
2,8, 1, 8, 0, 4, 0.00,60.00,Tuesday
19,7359206.137549323
55,0.0
509,0.0
2,8, 1, 8, 0, 5, 0.00,60.00,Tuesday
19,7900520.722593688
55,0.0
509,0.0
2,8, 1, 8, 0, 6, 0.00,60.00,Tuesday
19,8766919.916158095
55,0.0
509,0.0
2,8, 1, 8, 0, 7, 0.00,60.00,Tuesday
19,9645406.082884113
55,0.0
509,0.0
2,8, 1, 8, 0, 8, 0.00,60.00,Tuesday
19,21104185.556157628
55,12977169.904799996
509,0.0
2,8, 1, 8, 0, 9, 0.00,60.00,Tuesday
19,20224018.55441468
55,12977169.904799996
509,0.0
2,8, 1, 8, 0,10, 0.00,60.00,Tuesday
19,18840754.333962449
55,12977169.904799996
509,0.0
2,8, 1, 8, 0,11, 0.00,60.00,Tuesday
19,17815399.15912499
55,12977169.904799996
509,0.0
2,8, 1, 8, 0,12, 0.00,60.00,Tuesday
19,16765947.990613565
55,12977169.904799996
509,0.0
2,8, 1, 8, 0,13, 0.00,60.00,Tuesday
19,15059815.832449854
55,12977169.904799996
509,0.0
2,8, 1, 8, 0,14, 0.00,60.00,Tuesday
19,15478744.745386225
55,12977169.904799996
509,0.0
2,8, 1, 8, 0,15, 0.00,60.00,Tuesday
19,17865782.29314142
55,12977169.904799996
509,0.0
2,8, 1, 8, 0,16, 0.00,60.00,Tuesday
19,20073509.67109023
55,12977169.904799996
509,0.0
2,8, 1, 8, 0,17, 0.00,60.00,Tuesday
19,20793665.821167459
55,12977169.904799996
509,0.0
2,8, 1, 8, 0,18, 0.00,60.00,Tuesday
19,19451394.323052
55,12977169.904799996
509,0.0
2,8, 1, 8, 0,19, 0.00,60.00,Tuesday
19,17145332.762820018
55,12977169.904799996
509,0.0
2,8, 1, 8, 0,20, 0.00,60.00,Tuesday
19,2020055.0263909046
55,0.0
509,0.0
2,8, 1, 8, 0,21, 0.00,60.00,Tuesday
19,4127117.038264147
55,0.0
509,0.0
2,8, 1, 8, 0,22, 0.00,60.00,Tuesday
19,6134702.749114715
55,0.0
509,0.0
2,8, 1, 8, 0,23, 0.00,60.00,Tuesday
19,7608969.953616347
55,0.0
509,0.0
2,8, 1, 8, 0,24, 0.00,60.00,Tuesday
19,8631495.752787846
55,0.0
509,0.0
2,9, 1, 9, 0, 1, 0.00,60.00,Wednesday
19,9579297.287954858
55,0.0
509,0.0
2,9, 1, 9, 0, 2, 0.00,60.00,Wednesday
19,9949160.732844685
55,0.0
509,0.0
2,9, 1, 9, 0, 3, 0.00,60.00,Wednesday
19,10409007.111506083
55,0.0
509,0.0
2,9, 1, 9, 0, 4, 0.00,60.00,Wednesday
19,11140222.70973098
55,0.0
509,0.0
2,9, 1, 9, 0, 5, 0.00,60.00,Wednesday
19,11622814.556367778
55,0.0
509,0.0
2,9, 1, 9, 0, 6, 0.00,60.00,Wednesday
19,11850953.714246804
55,0.0
509,0.0
2,9, 1, 9, 0, 7, 0.00,60.00,Wednesday
19,11973751.653935526
55,0.0
509,0.0
2,9, 1, 9, 0, 8, 0.00,60.00,Wednesday
19,23259918.82719124
55,12977169.904799996
509,0.0
2,9, 1, 9, 0, 9, 0.00,60.00,Wednesday
19,22564445.386542895
55,12977169.904799996
509,0.0
2,9, 1, 9, 0,10, 0.00,60.00,Wednesday
19,21291056.008197257
55,12977169.904799996
509,0.0
2,9, 1, 9, 0,11, 0.00,60.00,Wednesday
19,19572518.90506835
55,12977169.904799996
509,0.0
2,9, 1, 9, 0,12, 0.00,60.00,Wednesday
19,17374518.11809917
55,12977169.904799996
509,0.0
2,9, 1, 9, 0,13, 0.00,60.00,Wednesday
19,14992415.731128784
55,12977169.904799996
509,0.0
2,9, 1, 9, 0,14, 0.00,60.00,Wednesday
19,16681653.4142759
55,12977169.904799996
509,0.0
2,9, 1, 9, 0,15, 0.00,60.00,Wednesday
19,19657132.310165526
55,12977169.904799996
509,0.0
2,9, 1, 9, 0,16, 0.00,60.00,Wednesday
19,22355821.10168545
55,12977169.904799996
509,0.0
2,9, 1, 9, 0,17, 0.00,60.00,Wednesday
19,23429533.993162179
55,12977169.904799996
509,0.0
2,9, 1, 9, 0,18, 0.00,60.00,Wednesday
19,22254773.241354728
55,12977169.904799996
509,0.0
2,9, 1, 9, 0,19, 0.00,60.00,Wednesday
19,19854306.435368539
55,12977169.904799996
509,0.0
2,9, 1, 9, 0,20, 0.00,60.00,Wednesday
19,2547390.0899895599
55,0.0
509,0.0
2,9, 1, 9, 0,21, 0.00,60.00,Wednesday
19,2821896.1947717589
55,0.0
509,0.0
2,9, 1, 9, 0,22, 0.00,60.00,Wednesday
19,3071503.132252834
55,0.0
509,0.0
2,9, 1, 9, 0,23, 0.00,60.00,Wednesday
19,4186445.4724361796
55,0.0
509,0.0
2,9, 1, 9, 0,24, 0.00,60.00,Wednesday
19,6254968.325038774
55,0.0
509,0.0
2,10, 1,10, 0, 1, 0.00,60.00,Thursday
19,6318594.492062107
55,0.0
509,0.0
2,10, 1,10, 0, 2, 0.00,60.00,Thursday
19,7294109.696628966
55,0.0
509,0.0
2,10, 1,10, 0, 3, 0.00,60.00,Thursday
19,8014956.582928281
55,0.0
509,0.0
2,10, 1,10, 0, 4, 0.00,60.00,Thursday
19,7027547.9494402329
55,0.0
509,0.0
2,10, 1,10, 0, 5, 0.00,60.00,Thursday
19,7155811.497049229
55,0.0
509,0.0
2,10, 1,10, 0, 6, 0.00,60.00,Thursday
19,7988682.000322661
55,0.0
509,0.0
2,10, 1,10, 0, 7, 0.00,60.00,Thursday
19,8898204.438119082
55,0.0
509,0.0
2,10, 1,10, 0, 8, 0.00,60.00,Thursday
19,20492287.136242909
55,12977169.904799996
509,0.0
2,10, 1,10, 0, 9, 0.00,60.00,Thursday
19,19655859.13792826
55,12977169.904799996
509,0.0
2,10, 1,10, 0,10, 0.00,60.00,Thursday
19,18954695.88473403
55,12977169.904799996
509,0.0
2,10, 1,10, 0,11, 0.00,60.00,Thursday
19,17664613.4391097
55,12977169.904799996
509,0.0
2,10, 1,10, 0,12, 0.00,60.00,Thursday
19,15713555.903671911
55,12977169.904799996
509,0.0
2,10, 1,10, 0,13, 0.00,60.00,Thursday
19,15265389.228264194
55,12977169.904799996
509,0.0
2,10, 1,10, 0,14, 0.00,60.00,Thursday
19,17725142.78234054
55,12977169.904799996
509,0.0
2,10, 1,10, 0,15, 0.00,60.00,Thursday
19,20130602.614603484
55,12977169.904799996
509,0.0
2,10, 1,10, 0,16, 0.00,60.00,Thursday
19,22283287.171137453
55,12977169.904799996
509,0.0
2,10, 1,10, 0,17, 0.00,60.00,Thursday
19,23163567.104204358
55,12977169.904799996
509,0.0
2,10, 1,10, 0,18, 0.00,60.00,Thursday
19,22218660.108387907
55,12977169.904799996
509,0.0
2,10, 1,10, 0,19, 0.00,60.00,Thursday
19,20149247.881240146
55,12977169.904799996
509,0.0
2,10, 1,10, 0,20, 0.00,60.00,Thursday
19,3810525.897155469
55,0.0
509,0.0
2,10, 1,10, 0,21, 0.00,60.00,Thursday
19,1769011.5306111798
55,0.0
509,0.0
2,10, 1,10, 0,22, 0.00,60.00,Thursday
19,2118490.773709401
55,0.0
509,0.0
2,10, 1,10, 0,23, 0.00,60.00,Thursday
19,3465068.436812603
55,0.0
509,0.0
2,10, 1,10, 0,24, 0.00,60.00,Thursday
19,4831168.4479669169
55,0.0
509,0.0
2,11, 1,11, 0, 1, 0.00,60.00,Friday
19,6297871.5023942119
55,0.0
509,0.0
2,11, 1,11, 0, 2, 0.00,60.00,Friday
19,7494058.128601878
55,0.0
509,0.0
2,11, 1,11, 0, 3, 0.00,60.00,Friday
19,8419228.076300515
55,0.0
509,0.0
2,11, 1,11, 0, 4, 0.00,60.00,Friday
19,9301916.49298666
55,0.0
509,0.0
2,11, 1,11, 0, 5, 0.00,60.00,Friday
19,10040909.282863962
55,0.0
509,0.0
2,11, 1,11, 0, 6, 0.00,60.00,Friday
19,10723663.731906293
55,0.0
509,0.0
2,11, 1,11, 0, 7, 0.00,60.00,Friday
19,10846454.387146628
55,0.0
509,0.0
2,11, 1,11, 0, 8, 0.00,60.00,Friday
19,21831469.834449859
55,12977169.904799996
509,0.0
2,11, 1,11, 0, 9, 0.00,60.00,Friday
19,20934253.36998322
55,12977169.904799996
509,0.0
2,11, 1,11, 0,10, 0.00,60.00,Friday
19,19590568.330191949
55,12977169.904799996
509,0.0
2,11, 1,11, 0,11, 0.00,60.00,Friday
19,17954542.35622752
55,12977169.904799996
509,0.0
2,11, 1,11, 0,12, 0.00,60.00,Friday
19,15922316.669630941
55,12977169.904799996
509,0.0
2,11, 1,11, 0,13, 0.00,60.00,Friday
19,15164331.636966782
55,12977169.904799996
509,0.0
2,11, 1,11, 0,14, 0.00,60.00,Friday
19,17834580.96851497
55,12977169.904799996
509,0.0
2,11, 1,11, 0,15, 0.00,60.00,Friday
19,20548627.621228726
55,12977169.904799996
509,0.0
2,11, 1,11, 0,16, 0.00,60.00,Friday
19,22893161.45480492
55,12977169.904799996
509,0.0
2,11, 1,11, 0,17, 0.00,60.00,Friday
19,23734218.67120094
55,12977169.904799996
509,0.0
2,11, 1,11, 0,18, 0.00,60.00,Friday
19,22580719.46649544
55,12977169.904799996
509,0.0
2,11, 1,11, 0,19, 0.00,60.00,Friday
19,20207825.67731563
55,12977169.904799996
509,0.0
2,11, 1,11, 0,20, 0.00,60.00,Friday
19,2653298.3868224278
55,0.0
509,0.0
2,11, 1,11, 0,21, 0.00,60.00,Friday
19,3304749.8869775177
55,0.0
509,0.0
2,11, 1,11, 0,22, 0.00,60.00,Friday
19,4640062.8343694419
55,0.0
509,0.0
2,11, 1,11, 0,23, 0.00,60.00,Friday
19,5402446.143716676
55,0.0
509,0.0
2,11, 1,11, 0,24, 0.00,60.00,Friday
19,5783488.890414077
55,0.0
509,0.0
2,12, 1,12, 0, 1, 0.00,60.00,Saturday
19,6040351.777910787
55,0.0
509,0.0
2,12, 1,12, 0, 2, 0.00,60.00,Saturday
19,6489199.912597197
55,0.0
509,0.0
2,12, 1,12, 0, 3, 0.00,60.00,Saturday
19,7127435.37102893
55,0.0
509,0.0
2,12, 1,12, 0, 4, 0.00,60.00,Saturday
19,7785642.269429927
55,0.0
509,0.0
2,12, 1,12, 0, 5, 0.00,60.00,Saturday
19,8529851.969283006
55,0.0
509,0.0
2,12, 1,12, 0, 6, 0.00,60.00,Saturday
19,9305537.615831599
55,0.0
509,0.0
2,12, 1,12, 0, 7, 0.00,60.00,Saturday
19,10131677.739663516
55,0.0
509,0.0
2,12, 1,12, 0, 8, 0.00,60.00,Saturday
19,10916998.65639528
55,0.0
509,0.0
2,12, 1,12, 0, 9, 0.00,60.00,Saturday
19,11219047.538583015
55,0.0
509,0.0
2,12, 1,12, 0,10, 0.00,60.00,Saturday
19,9561567.450830095
55,0.0
509,0.0
2,12, 1,12, 0,11, 0.00,60.00,Saturday
19,7225346.084705662
55,0.0
509,0.0
2,12, 1,12, 0,12, 0.00,60.00,Saturday
19,4851684.258980389
55,0.0
509,0.0
2,12, 1,12, 0,13, 0.00,60.00,Saturday
19,2312801.34440493
55,0.0
509,0.0
2,12, 1,12, 0,14, 0.00,60.00,Saturday
19,2651777.4379139805
55,0.0
509,0.0
2,12, 1,12, 0,15, 0.00,60.00,Saturday
19,5274503.257549519
55,0.0
509,0.0
2,12, 1,12, 0,16, 0.00,60.00,Saturday
19,7626402.607533684
55,0.0
509,0.0
2,12, 1,12, 0,17, 0.00,60.00,Saturday
19,8587042.94838351
55,0.0
509,0.0
2,12, 1,12, 0,18, 0.00,60.00,Saturday
19,7532669.924459141
55,0.0
509,0.0
2,12, 1,12, 0,19, 0.00,60.00,Saturday
19,5186098.030893211
55,0.0
509,0.0
2,12, 1,12, 0,20, 0.00,60.00,Saturday
19,3145159.375124979
55,0.0
509,0.0
2,12, 1,12, 0,21, 0.00,60.00,Saturday
19,1775672.101144009
55,0.0
509,0.0
2,12, 1,12, 0,22, 0.00,60.00,Saturday
19,2173169.622213142
55,0.0
509,0.0
2,12, 1,12, 0,23, 0.00,60.00,Saturday
19,2271674.2356841855
55,0.0
509,0.0
2,12, 1,12, 0,24, 0.00,60.00,Saturday
19,2755874.2522580458
55,0.0
509,0.0
2,13, 1,13, 0, 1, 0.00,60.00,Sunday
19,3186216.616028554
55,0.0
509,0.0
2,13, 1,13, 0, 2, 0.00,60.00,Sunday
19,3556754.683322056
55,0.0
509,0.0
2,13, 1,13, 0, 3, 0.00,60.00,Sunday
19,3973742.665153239
55,0.0
509,0.0
2,13, 1,13, 0, 4, 0.00,60.00,Sunday
19,4401700.341059303
55,0.0
509,0.0
2,13, 1,13, 0, 5, 0.00,60.00,Sunday
19,5301349.160573926
55,0.0
509,0.0
2,13, 1,13, 0, 6, 0.00,60.00,Sunday
19,6501732.782630373
55,0.0
509,0.0
2,13, 1,13, 0, 7, 0.00,60.00,Sunday
19,7430033.098388809
55,0.0
509,0.0
2,13, 1,13, 0, 8, 0.00,60.00,Sunday
19,8211560.535770863
55,0.0
509,0.0
2,13, 1,13, 0, 9, 0.00,60.00,Sunday
19,8725824.215907759
55,0.0
509,0.0
2,13, 1,13, 0,10, 0.00,60.00,Sunday
19,8231942.736292396
55,0.0
509,0.0
2,13, 1,13, 0,11, 0.00,60.00,Sunday
19,7415772.905793069
55,0.0
509,0.0
2,13, 1,13, 0,12, 0.00,60.00,Sunday
19,6289610.540627992
55,0.0
509,0.0
2,13, 1,13, 0,13, 0.00,60.00,Sunday
19,4541566.1165003799
55,0.0
509,0.0
2,13, 1,13, 0,14, 0.00,60.00,Sunday
19,2811398.7370596716
55,0.0
509,0.0
2,13, 1,13, 0,15, 0.00,60.00,Sunday
19,1688050.9190664762
55,0.0
509,0.0
2,13, 1,13, 0,16, 0.00,60.00,Sunday
19,3281305.3595609965
55,0.0
509,0.0
2,13, 1,13, 0,17, 0.00,60.00,Sunday
19,3890404.9942338105
55,0.0
509,0.0
2,13, 1,13, 0,18, 0.00,60.00,Sunday
19,2636826.8146660148
55,0.0
509,0.0
2,13, 1,13, 0,19, 0.00,60.00,Sunday
19,1963984.322115216
55,0.0
509,0.0
2,13, 1,13, 0,20, 0.00,60.00,Sunday
19,3245584.566629866
55,0.0
509,0.0
2,13, 1,13, 0,21, 0.00,60.00,Sunday
19,4612502.907002405
55,0.0
509,0.0
2,13, 1,13, 0,22, 0.00,60.00,Sunday
19,5984791.076560282
55,0.0
509,0.0
2,13, 1,13, 0,23, 0.00,60.00,Sunday
19,7120586.094092001
55,0.0
509,0.0
2,13, 1,13, 0,24, 0.00,60.00,Sunday
19,8203379.274252718
55,0.0
509,0.0
2,14, 1,14, 0, 1, 0.00,60.00,Monday
19,9349058.161733553
55,0.0
509,0.0
2,14, 1,14, 0, 2, 0.00,60.00,Monday
19,10186122.29725236
55,0.0
509,0.0
2,14, 1,14, 0, 3, 0.00,60.00,Monday
19,10880587.789523581
55,0.0
509,0.0
2,14, 1,14, 0, 4, 0.00,60.00,Monday
19,11537424.658140473
55,0.0
509,0.0
2,14, 1,14, 0, 5, 0.00,60.00,Monday
19,12172095.866334292
55,0.0
509,0.0
2,14, 1,14, 0, 6, 0.00,60.00,Monday
19,12773020.48564224
55,0.0
509,0.0
2,14, 1,14, 0, 7, 0.00,60.00,Monday
19,13232858.019830363
55,0.0
509,0.0
2,14, 1,14, 0, 8, 0.00,60.00,Monday
19,24079359.876995405
55,12977169.904799996
509,0.0
2,14, 1,14, 0, 9, 0.00,60.00,Monday
19,22788159.856252064
55,12977169.904799996
509,0.0
2,14, 1,14, 0,10, 0.00,60.00,Monday
19,20990228.289381375
55,12977169.904799996
509,0.0
2,14, 1,14, 0,11, 0.00,60.00,Monday
19,19313652.62536273
55,12977169.904799996
509,0.0
2,14, 1,14, 0,12, 0.00,60.00,Monday
19,17680807.211591908
55,12977169.904799996
509,0.0
2,14, 1,14, 0,13, 0.00,60.00,Monday
19,15416487.17636649
55,12977169.904799996
509,0.0
2,14, 1,14, 0,14, 0.00,60.00,Monday
19,15483633.530957312
55,12977169.904799996
509,0.0
2,14, 1,14, 0,15, 0.00,60.00,Monday
19,18124930.611792178
55,12977169.904799996
509,0.0
2,14, 1,14, 0,16, 0.00,60.00,Monday
19,20578351.65209895
55,12977169.904799996
509,0.0
2,14, 1,14, 0,17, 0.00,60.00,Monday
19,21640384.182585036
55,12977169.904799996
509,0.0
2,14, 1,14, 0,18, 0.00,60.00,Monday
19,20746099.33756944
55,12977169.904799996
509,0.0
2,14, 1,14, 0,19, 0.00,60.00,Monday
19,18408751.311256868
55,12977169.904799996
509,0.0
2,14, 1,14, 0,20, 0.00,60.00,Monday
19,1976021.61215902
55,0.0
509,0.0
2,14, 1,14, 0,21, 0.00,60.00,Monday
19,2538164.446358476
55,0.0
509,0.0
2,14, 1,14, 0,22, 0.00,60.00,Monday
19,4105373.0760408656
55,0.0
509,0.0
2,14, 1,14, 0,23, 0.00,60.00,Monday
19,5246259.477490283
55,0.0
509,0.0
2,14, 1,14, 0,24, 0.00,60.00,Monday
19,6111347.304820944
55,0.0
509,0.0
2,15, 1,15, 0, 1, 0.00,60.00,Tuesday
19,6913000.437199455
55,0.0
509,0.0
2,15, 1,15, 0, 2, 0.00,60.00,Tuesday
19,7885028.995130708
55,0.0
509,0.0
2,15, 1,15, 0, 3, 0.00,60.00,Tuesday
19,9051067.723669632
55,0.0
509,0.0
2,15, 1,15, 0, 4, 0.00,60.00,Tuesday
19,10173503.54562755
55,0.0
509,0.0
2,15, 1,15, 0, 5, 0.00,60.00,Tuesday
19,10603184.685038006
55,0.0
509,0.0
2,15, 1,15, 0, 6, 0.00,60.00,Tuesday
19,10530529.194581805
55,0.0
509,0.0
2,15, 1,15, 0, 7, 0.00,60.00,Tuesday
19,10332681.02172685
55,0.0
509,0.0
2,15, 1,15, 0, 8, 0.00,60.00,Tuesday
19,21726433.587652554
55,12977169.904799996
509,0.0
2,15, 1,15, 0, 9, 0.00,60.00,Tuesday
19,21430856.5415138
55,12977169.904799996
509,0.0
2,15, 1,15, 0,10, 0.00,60.00,Tuesday
19,20544059.369650209
55,12977169.904799996
509,0.0
2,15, 1,15, 0,11, 0.00,60.00,Tuesday
19,18850671.552584895
55,12977169.904799996
509,0.0
2,15, 1,15, 0,12, 0.00,60.00,Tuesday
19,16693894.3596351
55,12977169.904799996
509,0.0
2,15, 1,15, 0,13, 0.00,60.00,Tuesday
19,14888233.051855036
55,12977169.904799996
509,0.0
2,15, 1,15, 0,14, 0.00,60.00,Tuesday
19,17098761.22428026
55,12977169.904799996
509,0.0
2,15, 1,15, 0,15, 0.00,60.00,Tuesday
19,20013553.964786468
55,12977169.904799996
509,0.0
2,15, 1,15, 0,16, 0.00,60.00,Tuesday
19,22684435.31298148
55,12977169.904799996
509,0.0
2,15, 1,15, 0,17, 0.00,60.00,Tuesday
19,23946322.794923907
55,12977169.904799996
509,0.0
2,15, 1,15, 0,18, 0.00,60.00,Tuesday
19,23215521.55336648
55,12977169.904799996
509,0.0
2,15, 1,15, 0,19, 0.00,60.00,Tuesday
19,21011696.03520401
55,12977169.904799996
509,0.0
2,15, 1,15, 0,20, 0.00,60.00,Tuesday
19,4026824.403222502
55,0.0
509,0.0
2,15, 1,15, 0,21, 0.00,60.00,Tuesday
19,1827688.961715558
55,0.0
509,0.0
2,15, 1,15, 0,22, 0.00,60.00,Tuesday
19,3953074.003822461
55,0.0
509,0.0
2,15, 1,15, 0,23, 0.00,60.00,Tuesday
19,6164639.638003981
55,0.0
509,0.0
2,15, 1,15, 0,24, 0.00,60.00,Tuesday
19,7366930.124420912
55,0.0
509,0.0
2,16, 1,16, 0, 1, 0.00,60.00,Wednesday
19,7984910.750169806
55,0.0
509,0.0
2,16, 1,16, 0, 2, 0.00,60.00,Wednesday
19,8609406.863039479
55,0.0
509,0.0
2,16, 1,16, 0, 3, 0.00,60.00,Wednesday
19,9281617.933967
55,0.0
509,0.0
2,16, 1,16, 0, 4, 0.00,60.00,Wednesday
19,10427296.640573649
55,0.0
509,0.0
2,16, 1,16, 0, 5, 0.00,60.00,Wednesday
19,11290814.493636864
55,0.0
509,0.0
2,16, 1,16, 0, 6, 0.00,60.00,Wednesday
19,11533689.116267877
55,0.0
509,0.0
2,16, 1,16, 0, 7, 0.00,60.00,Wednesday
19,11677298.480877389
55,0.0
509,0.0
2,16, 1,16, 0, 8, 0.00,60.00,Wednesday
19,24076001.629482096
55,12977169.904799996
509,0.0
2,16, 1,16, 0, 9, 0.00,60.00,Wednesday
19,23966956.422718
55,12977169.904799996
509,0.0
2,16, 1,16, 0,10, 0.00,60.00,Wednesday
19,22160616.713714269
55,12977169.904799996
509,0.0
2,16, 1,16, 0,11, 0.00,60.00,Wednesday
19,19928734.46366661
55,12977169.904799996
509,0.0
2,16, 1,16, 0,12, 0.00,60.00,Wednesday
19,17209701.92964444
55,12977169.904799996